12.json
[['H', (0.0, 0.0, 0.0)], ['H', (1.5, 0.0, 0.0)], ['H', (3.0, 0.0, 0.0)], ['H', (4.5, 0.0, 0.0)]]
overwrite output file: results/fig6/cas_init_result/log_12.txt

Running CASSCF with NN initial guess...
CASSCF (NN guess) took 0.06 seconds

Running CASSCF with HF initial guess...
CASSCF (HF guess) took 0.10 seconds
.8 ]
numpy 2.3.2  scipy 1.16.1  h5py 3.14.0
Date: Mon Aug 25 00:39:47 2025
PySCF version 2.10.0
PySCF path  /opt/anaconda3/envs/vqe_env/lib/python3.11/site-packages/pyscf

[CONFIG] conf_file None
[INPUT] verbose = 4
[INPUT] num. atoms = 4
[INPUT] num. electrons = 4
[INPUT] charge = 0
[INPUT] spin (= nelec alpha-beta = 2S) = 0
[INPUT] symmetry False subgroup None
[INPUT] Mole.unit = angstrom
[INPUT] Symbol           X                Y                Z      unit          X                Y                Z       unit  Magmom
[INPUT]  1 H      0.000000000000   0.000000000000   0.000000000000 AA    0.000000000000   0.000000000000   0.000000000000 Bohr   0.0
[INPUT]  2 H      1.500000000000   0.000000000000   0.000000000000 AA    2.834589186848   0.000000000000   0.000000000000 Bohr   0.0
[INPUT]  3 H      3.000000000000   0.000000000000   0.000000000000 AA    5.669178373695   0.000000000000   0.000000000000 Bohr   0.0
[INPUT]  4 H      4.500000000000   0.000000000000   0.000000000000 AA    8.503767560543   0.000000000000   0.000000000000 Bohr   0.0

nuclear repulsion = 1.52873416488
number of shells = 12
number of NR pGTOs = 28
number of NR cGTOs = 20
basis = ccpVDZ
ecp = {}
CPU time:        19.46


******** <class 'pyscf.scf.hf.RHF'> ********
method = RHF
initial guess = minao
damping factor = 0
level_shift factor = 0
DIIS = <class 'pyscf.scf.diis.CDIIS'>
diis_start_cycle = 1
diis_space = 8
diis_damp = 0
SCF conv_tol = 1e-09
SCF conv_tol_grad = None
SCF max_cycles = 50
direct_scf = True
direct_scf_tol = 1e-13
chkfile to save SCF result = /var/folders/2g/30fq15_16yvcsfwpd5x9z9p80000gn/T/tmpff44of_k
max_memory 4000 MB (current use 0 MB)
Set gradient conv threshold to 3.16228e-05
Initial guess from minao.
init E= -1.40860914724811
  HOMO = -0.266178936227694  LUMO = -0.0837233071794517
cycle= 1 E= -1.99929705726451  delta_E= -0.591  |g|= 0.0748  |ddm|= 1.01
  HOMO = -0.390869705617182  LUMO = -0.0372459026971568
cycle= 2 E= -2.00414698958495  delta_E= -0.00485  |g|= 0.0242  |ddm|= 0.168
  HOMO = -0.392802577117673  LUMO = -0.0267287626370196
cycle= 3 E= -2.00496524435492  delta_E= -0.000818  |g|= 0.00646  |ddm|= 0.0749
  HOMO = -0.394781396197399  LUMO = -0.0256287745808824
cycle= 4 E= -2.00502357174389  delta_E= -5.83e-05  |g|= 0.000984  |ddm|= 0.0226
  HOMO = -0.39482484065711  LUMO = -0.0252435108644011
cycle= 5 E= -2.00502469755607  delta_E= -1.13e-06  |g|= 5.41e-05  |ddm|= 0.00248
  HOMO = -0.394852347757785  LUMO = -0.0252540771559374
cycle= 6 E= -2.00502469918613  delta_E= -1.63e-09  |g|= 4.42e-06  |ddm|= 0.000151
  HOMO = -0.394850433366728  LUMO = -0.025254640523412
cycle= 7 E= -2.00502469919606  delta_E= -9.92e-12  |g|= 2.67e-07  |ddm|= 1.31e-05
  HOMO = -0.394850787117074  LUMO = -0.0252546712213154
Extra cycle  E= -2.00502469919612  delta_E= -6.62e-14  |g|= 8.81e-08  |ddm|= 4.86e-07
converged SCF energy = -2.00502469919612


******** <class 'pyscf.scf.hf.RHF'> ********
method = RHF
initial guess = minao
damping factor = 0
level_shift factor = 0
DIIS = <class 'pyscf.scf.diis.CDIIS'>
diis_start_cycle = 1
diis_space = 8
diis_damp = 0
SCF conv_tol = 1e-09
SCF conv_tol_grad = None
SCF max_cycles = 50
direct_scf = True
direct_scf_tol = 1e-13
chkfile to save SCF result = /var/folders/2g/30fq15_16yvcsfwpd5x9z9p80000gn/T/tmp7a00vhqz
max_memory 4000 MB (current use 0 MB)
Set gradient conv threshold to 3.16228e-05
Initial guess from minao.
init E= -1.40860914724811
  HOMO = -0.266178936227694  LUMO = -0.0837233071794512
cycle= 1 E= -1.99929705726451  delta_E= -0.591  |g|= 0.0748  |ddm|= 1.01
  HOMO = -0.390869705617181  LUMO = -0.037245902697156
cycle= 2 E= -2.00414698958495  delta_E= -0.00485  |g|= 0.0242  |ddm|= 0.168
  HOMO = -0.392802577117674  LUMO = -0.02672876263702
cycle= 3 E= -2.00496524435492  delta_E= -0.000818  |g|= 0.00646  |ddm|= 0.0749
  HOMO = -0.394781396197399  LUMO = -0.0256287745808821
cycle= 4 E= -2.00502357174389  delta_E= -5.83e-05  |g|= 0.000984  |ddm|= 0.0226
  HOMO = -0.39482484065711  LUMO = -0.0252435108644019
cycle= 5 E= -2.00502469755607  delta_E= -1.13e-06  |g|= 5.41e-05  |ddm|= 0.00248
  HOMO = -0.394852347757785  LUMO = -0.0252540771559369
cycle= 6 E= -2.00502469918613  delta_E= -1.63e-09  |g|= 4.42e-06  |ddm|= 0.000151
  HOMO = -0.394850433366744  LUMO = -0.0252546405234074
cycle= 7 E= -2.00502469919606  delta_E= -9.93e-12  |g|= 2.67e-07  |ddm|= 1.31e-05
  HOMO = -0.394850787117075  LUMO = -0.0252546712213146
Extra cycle  E= -2.00502469919612  delta_E= -6.57e-14  |g|= 8.81e-08  |ddm|= 4.86e-07
converged SCF energy = -2.00502469919612

******** <class 'pyscf.mcscf.mc1step.CASSCF'> ********
CAS (2e+2e, 4o), ncore = 0, nvir = 16
max_cycle_macro = 50
max_cycle_micro = 4
conv_tol = 1e-07
conv_tol_grad = None
orbital rotation max_stepsize = 0.02
orbital rotation threshold for CI restart = 0.01
augmented hessian ah_max_cycle = 30
augmented hessian ah_conv_tol = 1e-12
augmented hessian ah_linear dependence = 1e-14
augmented hessian ah_level shift = 1e-08
augmented hessian ah_start_tol = 2.5
augmented hessian ah_start_cycle = 3
augmented hessian ah_grad_trust_region = 3
kf_trust_region = 3
kf_interval = 4
ci_response_space = 4
ci_grad_trust_region = 3
with_dep4 0
natorb = False
canonicalization = True
sorting_mo_energy = False
ao2mo_level = 2
chkfile = /var/folders/2g/30fq15_16yvcsfwpd5x9z9p80000gn/T/tmp7a00vhqz
max_memory 4000 MB (current use 0 MB)
internal_rotation = False
******** <class 'pyscf.fci.direct_spin1.FCISolver'> ********
max. cycles = 50
conv_tol = 1e-08
davidson only = False
linear dependence = 1e-12
level shift = 0.001
max iter space = 12
max_memory 4000 MB
nroots = 1
pspace_size = 400
spin = None
CASCI E = -2.10900274935421  S^2 = 0.0000000
Set conv_tol_grad to 0.000316228
macro iter   1 (  9 JK    3 micro), CASSCF E = -2.10953473459869  dE = -5.31985244e-04  S^2 = 0.0000000
               |grad[o]|=0.0326  |grad[c]|=0.000565  |ddm|=0.0102  |maxRot[o]|=0.0115
macro iter   2 (  3 JK    1 micro), CASSCF E = -2.10953475329559  dE = -1.86969058e-08  S^2 = 0.0000000
               |grad[o]|=0.00013  |grad[c]|=3.02e-05  |ddm|=0.000101  |maxRot[o]|=0.000133
1-step CASSCF converged in   2 macro ( 12 JK   4 micro) steps
CASSCF canonicalization
Density matrix diagonal elements [1.8647635  1.74065334 0.26916737 0.1254158 ]
CASSCF energy = -2.10953475329559
CASCI E = -2.10953475329559  E(CI) = -3.63826891817559  S^2 = 0.0000000


******** <class 'pyscf.scf.hf.RHF'> ********
method = RHF
initial guess = minao
damping factor = 0
level_shift factor = 0
DIIS = <class 'pyscf.scf.diis.CDIIS'>
diis_start_cycle = 1
diis_space = 8
diis_damp = 0
SCF conv_tol = 1e-09
SCF conv_tol_grad = None
SCF max_cycles = 50
direct_scf = True
direct_scf_tol = 1e-13
chkfile to save SCF result = /var/folders/2g/30fq15_16yvcsfwpd5x9z9p80000gn/T/tmpr6dansx3
max_memory 4000 MB (current use 0 MB)
Set gradient conv threshold to 3.16228e-05
Initial guess from minao.
init E= -1.40860914724811
  HOMO = -0.266178936227694  LUMO = -0.0837233071794515
cycle= 1 E= -1.99929705726451  delta_E= -0.591  |g|= 0.0748  |ddm|= 1.01
  HOMO = -0.390869705617182  LUMO = -0.0372459026971552
cycle= 2 E= -2.00414698958495  delta_E= -0.00485  |g|= 0.0242  |ddm|= 0.168
  HOMO = -0.392802577117673  LUMO = -0.0267287626370196
cycle= 3 E= -2.00496524435492  delta_E= -0.000818  |g|= 0.00646  |ddm|= 0.0749
  HOMO = -0.3947813961974  LUMO = -0.0256287745808836
cycle= 4 E= -2.00502357174389  delta_E= -5.83e-05  |g|= 0.000984  |ddm|= 0.0226
  HOMO = -0.394824840657111  LUMO = -0.0252435108644017
cycle= 5 E= -2.00502469755607  delta_E= -1.13e-06  |g|= 5.41e-05  |ddm|= 0.00248
  HOMO = -0.394852347757785  LUMO = -0.0252540771559369
cycle= 6 E= -2.00502469918614  delta_E= -1.63e-09  |g|= 4.42e-06  |ddm|= 0.000151
  HOMO = -0.394850433366744  LUMO = -0.0252546405234063
cycle= 7 E= -2.00502469919606  delta_E= -9.92e-12  |g|= 2.67e-07  |ddm|= 1.31e-05
  HOMO = -0.394850787117076  LUMO = -0.0252546712213147
Extra cycle  E= -2.00502469919612  delta_E= -6.57e-14  |g|= 8.81e-08  |ddm|= 4.86e-07
converged SCF energy = -2.00502469919612

******** <class 'pyscf.mcscf.mc1step.CASSCF'> ********
CAS (2e+2e, 4o), ncore = 0, nvir = 16
max_cycle_macro = 50
max_cycle_micro = 4
conv_tol = 1e-07
conv_tol_grad = None
orbital rotation max_stepsize = 0.02
orbital rotation threshold for CI restart = 0.01
augmented hessian ah_max_cycle = 30
augmented hessian ah_conv_tol = 1e-12
augmented hessian ah_linear dependence = 1e-14
augmented hessian ah_level shift = 1e-08
augmented hessian ah_start_tol = 2.5
augmented hessian ah_start_cycle = 3
augmented hessian ah_grad_trust_region = 3
kf_trust_region = 3
kf_interval = 4
ci_response_space = 4
ci_grad_trust_region = 3
with_dep4 0
natorb = False
canonicalization = True
sorting_mo_energy = False
ao2mo_level = 2
chkfile = /var/folders/2g/30fq15_16yvcsfwpd5x9z9p80000gn/T/tmpr6dansx3
max_memory 4000 MB (current use 0 MB)
internal_rotation = False
******** <class 'pyscf.fci.direct_spin1.FCISolver'> ********
max. cycles = 50
conv_tol = 1e-08
davidson only = False
linear dependence = 1e-12
level shift = 0.001
max iter space = 12
max_memory 4000 MB
nroots = 1
pspace_size = 400
spin = None
CASCI E = -2.07555851811368  S^2 = 0.0000000
Set conv_tol_grad to 0.000316228
macro iter   1 ( 21 JK    4 micro), CASSCF E = -2.10942821389166  dE = -3.38696958e-02  S^2 = 0.0000000
               |grad[o]|=0.0858  |grad[c]|=0.0336  |ddm|=0.114  |maxRot[o]|=0.311
macro iter   2 (  9 JK    3 micro), CASSCF E = -2.10953474685073  dE = -1.06532959e-04  S^2 = 0.0000000
               |grad[o]|=0.0103  |grad[c]|=0.000139  |ddm|=0.00631  |maxRot[o]|=0.0137
macro iter   3 (  3 JK    1 micro), CASSCF E = -2.10953475187296  dE = -5.02223774e-09  S^2 = 0.0000000
               |grad[o]|=4.11e-05  |grad[c]|=4.36e-05  |ddm|=9.16e-05  |maxRot[o]|=2.87e-05
1-step CASSCF converged in   3 macro ( 33 JK   8 micro) steps
CASSCF canonicalization
Density matrix diagonal elements [1.86484393 1.7413413  0.26909869 0.12471608]
CASSCF energy = -2.10953475187296
CASCI E = -2.10953475187296  E(CI) = -3.63826891675296  S^2 = 0.0000000
