8.json
[['H', (0.0, 0.0, 0.0)], ['H', (1.100000023841858, 0.0, 0.0)], ['H', (2.200000047683716, 0.0, 0.0)], ['H', (3.299999952316284, 0.0, 0.0)]]
overwrite output file: results/fig6/cas_init_result/log_8.txt

Running CASSCF with NN initial guess...
CASSCF (NN guess) took 0.05 seconds

Running CASSCF with HF initial guess...
CASSCF (HF guess) took 0.12 seconds
4.0
Date: Mon Aug 25 00:39:50 2025
PySCF version 2.10.0
PySCF path  /opt/anaconda3/envs/vqe_env/lib/python3.11/site-packages/pyscf

[CONFIG] conf_file None
[INPUT] verbose = 4
[INPUT] num. atoms = 4
[INPUT] num. electrons = 4
[INPUT] charge = 0
[INPUT] spin (= nelec alpha-beta = 2S) = 0
[INPUT] symmetry False subgroup None
[INPUT] Mole.unit = angstrom
[INPUT] Symbol           X                Y                Z      unit          X                Y                Z       unit  Magmom
[INPUT]  1 H      0.000000000000   0.000000000000   0.000000000000 AA    0.000000000000   0.000000000000   0.000000000000 Bohr   0.0
[INPUT]  2 H      1.100000023842   0.000000000000   0.000000000000 AA    2.078698782076   0.000000000000   0.000000000000 Bohr   0.0
[INPUT]  3 H      2.200000047684   0.000000000000   0.000000000000 AA    4.157397564152   0.000000000000   0.000000000000 Bohr   0.0
[INPUT]  4 H      3.299999952316   0.000000000000   0.000000000000 AA    6.236096120956   0.000000000000   0.000000000000 Bohr   0.0

nuclear repulsion = 2.08463752334129
number of shells = 12
number of NR pGTOs = 28
number of NR cGTOs = 20
basis = ccpVDZ
ecp = {}
CPU time:        40.98


******** <class 'pyscf.scf.hf.RHF'> ********
method = RHF
initial guess = minao
damping factor = 0
level_shift factor = 0
DIIS = <class 'pyscf.scf.diis.CDIIS'>
diis_start_cycle = 1
diis_space = 8
diis_damp = 0
SCF conv_tol = 1e-09
SCF conv_tol_grad = None
SCF max_cycles = 50
direct_scf = True
direct_scf_tol = 1e-13
chkfile to save SCF result = /var/folders/2g/30fq15_16yvcsfwpd5x9z9p80000gn/T/tmp_g8_1ho9
max_memory 4000 MB (current use 0 MB)
Set gradient conv threshold to 3.16228e-05
Initial guess from minao.
init E= -1.58167250885783
  HOMO = -0.310462376309356  LUMO = 0.000820086685983836
cycle= 1 E= -2.1367814941747  delta_E= -0.555  |g|= 0.0856  |ddm|= 0.997
  HOMO = -0.430431425136346  LUMO = 0.0509990569318969
cycle= 2 E= -2.14139018234617  delta_E= -0.00461  |g|= 0.0231  |ddm|= 0.245
  HOMO = -0.426576192683097  LUMO = 0.0640147308322187
cycle= 3 E= -2.14185706073812  delta_E= -0.000467  |g|= 0.00503  |ddm|= 0.0891
  HOMO = -0.42815609582358  LUMO = 0.0647116737672879
cycle= 4 E= -2.14188019455656  delta_E= -2.31e-05  |g|= 0.000593  |ddm|= 0.0228
  HOMO = -0.428270428434862  LUMO = 0.0647897769243386
cycle= 5 E= -2.14188044715562  delta_E= -2.53e-07  |g|= 3e-05  |ddm|= 0.00166
  HOMO = -0.428282471951304  LUMO = 0.0647885398152928
cycle= 6 E= -2.14188044759614  delta_E= -4.41e-10  |g|= 1.49e-06  |ddm|= 4.93e-05
  HOMO = -0.428281366851446  LUMO = 0.0647884309455927
Extra cycle  E= -2.14188044759744  delta_E= -1.3e-12  |g|= 3.76e-07  |ddm|= 2.66e-06
converged SCF energy = -2.14188044759744


******** <class 'pyscf.scf.hf.RHF'> ********
method = RHF
initial guess = minao
damping factor = 0
level_shift factor = 0
DIIS = <class 'pyscf.scf.diis.CDIIS'>
diis_start_cycle = 1
diis_space = 8
diis_damp = 0
SCF conv_tol = 1e-09
SCF conv_tol_grad = None
SCF max_cycles = 50
direct_scf = True
direct_scf_tol = 1e-13
chkfile to save SCF result = /var/folders/2g/30fq15_16yvcsfwpd5x9z9p80000gn/T/tmpxcigstlx
max_memory 4000 MB (current use 0 MB)
Set gradient conv threshold to 3.16228e-05
Initial guess from minao.
init E= -1.58167250885783
  HOMO = -0.310462376309356  LUMO = 0.000820086685983885
cycle= 1 E= -2.1367814941747  delta_E= -0.555  |g|= 0.0856  |ddm|= 0.997
  HOMO = -0.430431425136346  LUMO = 0.0509990569318966
cycle= 2 E= -2.14139018234616  delta_E= -0.00461  |g|= 0.0231  |ddm|= 0.245
  HOMO = -0.426576192683097  LUMO = 0.0640147308322189
cycle= 3 E= -2.14185706073812  delta_E= -0.000467  |g|= 0.00503  |ddm|= 0.0891
  HOMO = -0.42815609582358  LUMO = 0.0647116737672881
cycle= 4 E= -2.14188019455657  delta_E= -2.31e-05  |g|= 0.000593  |ddm|= 0.0228
  HOMO = -0.428270428434861  LUMO = 0.0647897769243389
cycle= 5 E= -2.14188044715562  delta_E= -2.53e-07  |g|= 3e-05  |ddm|= 0.00166
  HOMO = -0.428282471951304  LUMO = 0.0647885398152919
cycle= 6 E= -2.14188044759614  delta_E= -4.41e-10  |g|= 1.49e-06  |ddm|= 4.93e-05
  HOMO = -0.428281366851447  LUMO = 0.0647884309455917
Extra cycle  E= -2.14188044759744  delta_E= -1.3e-12  |g|= 3.76e-07  |ddm|= 2.66e-06
converged SCF energy = -2.14188044759744

******** <class 'pyscf.mcscf.mc1step.CASSCF'> ********
CAS (2e+2e, 4o), ncore = 0, nvir = 16
max_cycle_macro = 50
max_cycle_micro = 4
conv_tol = 1e-07
conv_tol_grad = None
orbital rotation max_stepsize = 0.02
orbital rotation threshold for CI restart = 0.01
augmented hessian ah_max_cycle = 30
augmented hessian ah_conv_tol = 1e-12
augmented hessian ah_linear dependence = 1e-14
augmented hessian ah_level shift = 1e-08
augmented hessian ah_start_tol = 2.5
augmented hessian ah_start_cycle = 3
augmented hessian ah_grad_trust_region = 3
kf_trust_region = 3
kf_interval = 4
ci_response_space = 4
ci_grad_trust_region = 3
with_dep4 0
natorb = False
canonicalization = True
sorting_mo_energy = False
ao2mo_level = 2
chkfile = /var/folders/2g/30fq15_16yvcsfwpd5x9z9p80000gn/T/tmpxcigstlx
max_memory 4000 MB (current use 0 MB)
internal_rotation = False
******** <class 'pyscf.fci.direct_spin1.FCISolver'> ********
max. cycles = 50
conv_tol = 1e-08
davidson only = False
linear dependence = 1e-12
level shift = 0.001
max iter space = 12
max_memory 4000 MB
nroots = 1
pspace_size = 400
spin = None
CASCI E = -2.20304916740769  S^2 = 0.0000000
Set conv_tol_grad to 0.000316228
macro iter   1 ( 13 JK    4 micro), CASSCF E = -2.20368437491150  dE = -6.35207504e-04  S^2 = 0.0000000
               |grad[o]|=0.0296  |grad[c]|=0.000673  |ddm|=0.0119  |maxRot[o]|=0.0371
macro iter   2 (  3 JK    1 micro), CASSCF E = -2.20368437847514  dE = -3.56364094e-09  S^2 = 0.0000000
               |grad[o]|=4.26e-05  |grad[c]|=2.36e-05  |ddm|=2.64e-05  |maxRot[o]|=0.000106
1-step CASSCF converged in   2 macro ( 16 JK   5 micro) steps
CASSCF canonicalization
Density matrix diagonal elements [1.95455381 1.89105634 0.11024697 0.04414287]
CASSCF energy = -2.20368437847514
CASCI E = -2.20368437847514  E(CI) = -4.28832190181644  S^2 = 0.0000000


******** <class 'pyscf.scf.hf.RHF'> ********
method = RHF
initial guess = minao
damping factor = 0
level_shift factor = 0
DIIS = <class 'pyscf.scf.diis.CDIIS'>
diis_start_cycle = 1
diis_space = 8
diis_damp = 0
SCF conv_tol = 1e-09
SCF conv_tol_grad = None
SCF max_cycles = 50
direct_scf = True
direct_scf_tol = 1e-13
chkfile to save SCF result = /var/folders/2g/30fq15_16yvcsfwpd5x9z9p80000gn/T/tmpmsqhkhz3
max_memory 4000 MB (current use 0 MB)
Set gradient conv threshold to 3.16228e-05
Initial guess from minao.
init E= -1.58167250885783
  HOMO = -0.310462376309356  LUMO = 0.000820086685983402
cycle= 1 E= -2.1367814941747  delta_E= -0.555  |g|= 0.0856  |ddm|= 0.997
  HOMO = -0.430431425136346  LUMO = 0.0509990569318967
cycle= 2 E= -2.14139018234617  delta_E= -0.00461  |g|= 0.0231  |ddm|= 0.245
  HOMO = -0.426576192683096  LUMO = 0.0640147308322197
cycle= 3 E= -2.14185706073812  delta_E= -0.000467  |g|= 0.00503  |ddm|= 0.0891
  HOMO = -0.42815609582358  LUMO = 0.0647116737672882
cycle= 4 E= -2.14188019455656  delta_E= -2.31e-05  |g|= 0.000593  |ddm|= 0.0228
  HOMO = -0.428270428434861  LUMO = 0.0647897769243379
cycle= 5 E= -2.14188044715563  delta_E= -2.53e-07  |g|= 3e-05  |ddm|= 0.00166
  HOMO = -0.428282471951304  LUMO = 0.0647885398152928
cycle= 6 E= -2.14188044759614  delta_E= -4.41e-10  |g|= 1.49e-06  |ddm|= 4.93e-05
  HOMO = -0.428281366851446  LUMO = 0.0647884309455914
Extra cycle  E= -2.14188044759744  delta_E= -1.3e-12  |g|= 3.76e-07  |ddm|= 2.66e-06
converged SCF energy = -2.14188044759744

******** <class 'pyscf.mcscf.mc1step.CASSCF'> ********
CAS (2e+2e, 4o), ncore = 0, nvir = 16
max_cycle_macro = 50
max_cycle_micro = 4
conv_tol = 1e-07
conv_tol_grad = None
orbital rotation max_stepsize = 0.02
orbital rotation threshold for CI restart = 0.01
augmented hessian ah_max_cycle = 30
augmented hessian ah_conv_tol = 1e-12
augmented hessian ah_linear dependence = 1e-14
augmented hessian ah_level shift = 1e-08
augmented hessian ah_start_tol = 2.5
augmented hessian ah_start_cycle = 3
augmented hessian ah_grad_trust_region = 3
kf_trust_region = 3
kf_interval = 4
ci_response_space = 4
ci_grad_trust_region = 3
with_dep4 0
natorb = False
canonicalization = True
sorting_mo_energy = False
ao2mo_level = 2
chkfile = /var/folders/2g/30fq15_16yvcsfwpd5x9z9p80000gn/T/tmpmsqhkhz3
max_memory 4000 MB (current use 0 MB)
internal_rotation = False
******** <class 'pyscf.fci.direct_spin1.FCISolver'> ********
max. cycles = 50
conv_tol = 1e-08
davidson only = False
linear dependence = 1e-12
level shift = 0.001
max iter space = 12
max_memory 4000 MB
nroots = 1
pspace_size = 400
spin = None
CASCI E = -2.16830604300120  S^2 = 0.0000000
Set conv_tol_grad to 0.000316228
macro iter   1 ( 21 JK    4 micro), CASSCF E = -2.19327578555163  dE = -2.49697426e-02  S^2 = 0.0000000
               |grad[o]|=0.0383  |grad[c]|=0.0258  |ddm|=0.0598  |maxRot[o]|=0.312
macro iter   2 ( 20 JK    4 micro), CASSCF E = -2.20365742328898  dE = -1.03816377e-02  S^2 = 0.0000000
               |grad[o]|=0.0339  |grad[c]|=0.011  |ddm|=0.0166  |maxRot[o]|=0.292
macro iter   3 (  6 JK    2 micro), CASSCF E = -2.20368435729344  dE = -2.69340045e-05  S^2 = 0.0000000
               |grad[o]|=0.00398  |grad[c]|=0.000271  |ddm|=0.00293  |maxRot[o]|=0.0128
macro iter   4 (  3 JK    1 micro), CASSCF E = -2.20368437787796  dE = -2.05845181e-08  S^2 = 0.0000000
               |grad[o]|=0.000111  |grad[c]|=3.83e-05  |ddm|=7.26e-05  |maxRot[o]|=0.000257
1-step CASSCF converged in   4 macro ( 50 JK  11 micro) steps
CASSCF canonicalization
Density matrix diagonal elements [1.95552852 1.89901365 0.10928676 0.03617107]
CASSCF energy = -2.20368437787796
CASCI E = -2.20368437787796  E(CI) = -4.28832190121925  S^2 = 0.0000000
