22.json
[['H', (0.0, 0.0, 0.0)], ['H', (2.5, 0.0, 0.0)], ['H', (5.0, 0.0, 0.0)], ['H', (7.5, 0.0, 0.0)]]
overwrite output file: results/fig6/cas_init_result/log_22.txt

Running CASSCF with NN initial guess...
CASSCF (NN guess) took 0.06 seconds

Running CASSCF with HF initial guess...
CASSCF (HF guess) took 0.07 seconds
.8 ]
numpy 2.3.2  scipy 1.16.1  h5py 3.14.0
Date: Mon Aug 25 00:39:51 2025
PySCF version 2.10.0
PySCF path  /opt/anaconda3/envs/vqe_env/lib/python3.11/site-packages/pyscf

[CONFIG] conf_file None
[INPUT] verbose = 4
[INPUT] num. atoms = 4
[INPUT] num. electrons = 4
[INPUT] charge = 0
[INPUT] spin (= nelec alpha-beta = 2S) = 0
[INPUT] symmetry False subgroup None
[INPUT] Mole.unit = angstrom
[INPUT] Symbol           X                Y                Z      unit          X                Y                Z       unit  Magmom
[INPUT]  1 H      0.000000000000   0.000000000000   0.000000000000 AA    0.000000000000   0.000000000000   0.000000000000 Bohr   0.0
[INPUT]  2 H      2.500000000000   0.000000000000   0.000000000000 AA    4.724315311413   0.000000000000   0.000000000000 Bohr   0.0
[INPUT]  3 H      5.000000000000   0.000000000000   0.000000000000 AA    9.448630622825   0.000000000000   0.000000000000 Bohr   0.0
[INPUT]  4 H      7.500000000000   0.000000000000   0.000000000000 AA   14.172945934238   0.000000000000   0.000000000000 Bohr   0.0

nuclear repulsion = 0.917240498928
number of shells = 12
number of NR pGTOs = 28
number of NR cGTOs = 20
basis = ccpVDZ
ecp = {}
CPU time:        54.52


******** <class 'pyscf.scf.hf.RHF'> ********
method = RHF
initial guess = minao
damping factor = 0
level_shift factor = 0
DIIS = <class 'pyscf.scf.diis.CDIIS'>
diis_start_cycle = 1
diis_space = 8
diis_damp = 0
SCF conv_tol = 1e-09
SCF conv_tol_grad = None
SCF max_cycles = 50
direct_scf = True
direct_scf_tol = 1e-13
chkfile to save SCF result = /var/folders/2g/30fq15_16yvcsfwpd5x9z9p80000gn/T/tmpqgle_1zk
max_memory 4000 MB (current use 0 MB)
Set gradient conv threshold to 3.16228e-05
Initial guess from minao.
init E= -1.31001722626582
  HOMO = -0.206570370958689  LUMO = -0.15743428896871
cycle= 1 E= -1.72673207372453  delta_E= -0.417  |g|= 0.0604  |ddm|=  1.2
  HOMO = -0.320928758716436  LUMO = -0.122433861787325
cycle= 2 E= -1.73209761865362  delta_E= -0.00537  |g|= 0.0224  |ddm|= 0.147
  HOMO = -0.329243005058484  LUMO = -0.117426116611908
cycle= 3 E= -1.73365582935935  delta_E= -0.00156  |g|= 0.00901  |ddm|= 0.0931
  HOMO = -0.33225762174657  LUMO = -0.114278819562734
cycle= 4 E= -1.73393037723342  delta_E= -0.000275  |g|= 0.00384  |ddm|= 0.0521
  HOMO = -0.332508565051935  LUMO = -0.113428783622588
cycle= 5 E= -1.73395065629445  delta_E= -2.03e-05  |g|= 0.000265  |ddm|= 0.0108
  HOMO = -0.33250470277562  LUMO = -0.113448336687192
cycle= 6 E= -1.73395072277939  delta_E= -6.65e-08  |g|= 1.83e-05  |ddm|= 0.000668
  HOMO = -0.332511538062746  LUMO = -0.113438510514439
cycle= 7 E= -1.73395072300528  delta_E= -2.26e-10  |g|= 8.12e-07  |ddm|= 3.18e-05
  HOMO = -0.332510984027285  LUMO = -0.113439881790169
Extra cycle  E= -1.73395072300607  delta_E= -7.94e-13  |g|= 2.84e-07  |ddm|= 1.98e-06
converged SCF energy = -1.73395072300607


******** <class 'pyscf.scf.hf.RHF'> ********
method = RHF
initial guess = minao
damping factor = 0
level_shift factor = 0
DIIS = <class 'pyscf.scf.diis.CDIIS'>
diis_start_cycle = 1
diis_space = 8
diis_damp = 0
SCF conv_tol = 1e-09
SCF conv_tol_grad = None
SCF max_cycles = 50
direct_scf = True
direct_scf_tol = 1e-13
chkfile to save SCF result = /var/folders/2g/30fq15_16yvcsfwpd5x9z9p80000gn/T/tmpxrrh_ndm
max_memory 4000 MB (current use 0 MB)
Set gradient conv threshold to 3.16228e-05
Initial guess from minao.
init E= -1.31001722626582
  HOMO = -0.206570370958689  LUMO = -0.15743428896871
cycle= 1 E= -1.72673207372453  delta_E= -0.417  |g|= 0.0604  |ddm|=  1.2
  HOMO = -0.320928758716436  LUMO = -0.122433861787325
cycle= 2 E= -1.73209761865362  delta_E= -0.00537  |g|= 0.0224  |ddm|= 0.147
  HOMO = -0.329243005058485  LUMO = -0.11742611661191
cycle= 3 E= -1.73365582935935  delta_E= -0.00156  |g|= 0.00901  |ddm|= 0.0931
  HOMO = -0.33225762174657  LUMO = -0.114278819562736
cycle= 4 E= -1.73393037723342  delta_E= -0.000275  |g|= 0.00384  |ddm|= 0.0521
  HOMO = -0.332508565051935  LUMO = -0.113428783622587
cycle= 5 E= -1.73395065629445  delta_E= -2.03e-05  |g|= 0.000265  |ddm|= 0.0108
  HOMO = -0.33250470277562  LUMO = -0.113448336687192
cycle= 6 E= -1.73395072277939  delta_E= -6.65e-08  |g|= 1.83e-05  |ddm|= 0.000668
  HOMO = -0.332511538062746  LUMO = -0.113438510514438
cycle= 7 E= -1.73395072300528  delta_E= -2.26e-10  |g|= 8.12e-07  |ddm|= 3.18e-05
  HOMO = -0.332510984027286  LUMO = -0.11343988179017
Extra cycle  E= -1.73395072300607  delta_E= -7.94e-13  |g|= 2.84e-07  |ddm|= 1.98e-06
converged SCF energy = -1.73395072300607

******** <class 'pyscf.mcscf.mc1step.CASSCF'> ********
CAS (2e+2e, 4o), ncore = 0, nvir = 16
max_cycle_macro = 50
max_cycle_micro = 4
conv_tol = 1e-07
conv_tol_grad = None
orbital rotation max_stepsize = 0.02
orbital rotation threshold for CI restart = 0.01
augmented hessian ah_max_cycle = 30
augmented hessian ah_conv_tol = 1e-12
augmented hessian ah_linear dependence = 1e-14
augmented hessian ah_level shift = 1e-08
augmented hessian ah_start_tol = 2.5
augmented hessian ah_start_cycle = 3
augmented hessian ah_grad_trust_region = 3
kf_trust_region = 3
kf_interval = 4
ci_response_space = 4
ci_grad_trust_region = 3
with_dep4 0
natorb = False
canonicalization = True
sorting_mo_energy = False
ao2mo_level = 2
chkfile = /var/folders/2g/30fq15_16yvcsfwpd5x9z9p80000gn/T/tmpxrrh_ndm
max_memory 4000 MB (current use 0 MB)
internal_rotation = False
******** <class 'pyscf.fci.direct_spin1.FCISolver'> ********
max. cycles = 50
conv_tol = 1e-08
davidson only = False
linear dependence = 1e-12
level shift = 0.001
max iter space = 12
max_memory 4000 MB
nroots = 1
pspace_size = 400
spin = None
CASCI E = -2.00469600455103  S^2 = 0.0000000
Set conv_tol_grad to 0.000316228
macro iter   1 ( 12 JK    4 micro), CASSCF E = -2.00560655358791  dE = -9.10549037e-04  S^2 = 0.0000012
               |grad[o]|=0.0345  |grad[c]|=0.000949  |ddm|=0.038  |maxRot[o]|=0.0161
macro iter   2 (  3 JK    1 micro), CASSCF E = -2.00560656639581  dE = -1.28078992e-08  S^2 = 0.0000010
               |grad[o]|=0.000103  |grad[c]|=2.5e-05  |ddm|=9.74e-05  |maxRot[o]|=6.39e-05
1-step CASSCF converged in   2 macro ( 15 JK   5 micro) steps
CASSCF canonicalization
Density matrix diagonal elements [1.35085973 1.09398882 0.77490734 0.78024411]
CASSCF energy = -2.00560656639581
CASCI E = -2.00560656639581  E(CI) = -2.92284706532381  S^2 = 0.0000010


******** <class 'pyscf.scf.hf.RHF'> ********
method = RHF
initial guess = minao
damping factor = 0
level_shift factor = 0
DIIS = <class 'pyscf.scf.diis.CDIIS'>
diis_start_cycle = 1
diis_space = 8
diis_damp = 0
SCF conv_tol = 1e-09
SCF conv_tol_grad = None
SCF max_cycles = 50
direct_scf = True
direct_scf_tol = 1e-13
chkfile to save SCF result = /var/folders/2g/30fq15_16yvcsfwpd5x9z9p80000gn/T/tmp98891km6
max_memory 4000 MB (current use 0 MB)
Set gradient conv threshold to 3.16228e-05
Initial guess from minao.
init E= -1.31001722626582
  HOMO = -0.206570370958689  LUMO = -0.157434288968711
cycle= 1 E= -1.72673207372453  delta_E= -0.417  |g|= 0.0604  |ddm|=  1.2
  HOMO = -0.320928758716436  LUMO = -0.122433861787326
cycle= 2 E= -1.73209761865362  delta_E= -0.00537  |g|= 0.0224  |ddm|= 0.147
  HOMO = -0.329243005058484  LUMO = -0.117426116611909
cycle= 3 E= -1.73365582935935  delta_E= -0.00156  |g|= 0.00901  |ddm|= 0.0931
  HOMO = -0.332257621746568  LUMO = -0.114278819562737
cycle= 4 E= -1.73393037723342  delta_E= -0.000275  |g|= 0.00384  |ddm|= 0.0521
  HOMO = -0.332508565051935  LUMO = -0.113428783622588
cycle= 5 E= -1.73395065629445  delta_E= -2.03e-05  |g|= 0.000265  |ddm|= 0.0108
  HOMO = -0.332504702775619  LUMO = -0.113448336687192
cycle= 6 E= -1.73395072277939  delta_E= -6.65e-08  |g|= 1.83e-05  |ddm|= 0.000668
  HOMO = -0.332511538062748  LUMO = -0.113438510514437
cycle= 7 E= -1.73395072300528  delta_E= -2.26e-10  |g|= 8.12e-07  |ddm|= 3.18e-05
  HOMO = -0.332510984027286  LUMO = -0.113439881790169
Extra cycle  E= -1.73395072300607  delta_E= -7.94e-13  |g|= 2.84e-07  |ddm|= 1.98e-06
converged SCF energy = -1.73395072300607

******** <class 'pyscf.mcscf.mc1step.CASSCF'> ********
CAS (2e+2e, 4o), ncore = 0, nvir = 16
max_cycle_macro = 50
max_cycle_micro = 4
conv_tol = 1e-07
conv_tol_grad = None
orbital rotation max_stepsize = 0.02
orbital rotation threshold for CI restart = 0.01
augmented hessian ah_max_cycle = 30
augmented hessian ah_conv_tol = 1e-12
augmented hessian ah_linear dependence = 1e-14
augmented hessian ah_level shift = 1e-08
augmented hessian ah_start_tol = 2.5
augmented hessian ah_start_cycle = 3
augmented hessian ah_grad_trust_region = 3
kf_trust_region = 3
kf_interval = 4
ci_response_space = 4
ci_grad_trust_region = 3
with_dep4 0
natorb = False
canonicalization = True
sorting_mo_energy = False
ao2mo_level = 2
chkfile = /var/folders/2g/30fq15_16yvcsfwpd5x9z9p80000gn/T/tmp98891km6
max_memory 4000 MB (current use 0 MB)
internal_rotation = False
******** <class 'pyscf.fci.direct_spin1.FCISolver'> ********
max. cycles = 50
conv_tol = 1e-08
davidson only = False
linear dependence = 1e-12
level shift = 0.001
max iter space = 12
max_memory 4000 MB
nroots = 1
pspace_size = 400
spin = None
CASCI E = -1.96801194218349  S^2 = 0.0000000
Set conv_tol_grad to 0.000316228
macro iter   1 ( 14 JK    4 micro), CASSCF E = -2.00560389653969  dE = -3.75919544e-02  S^2 = 0.0000021
               |grad[o]|=0.161  |grad[c]|=0.0376  |ddm|=0.102  |maxRot[o]|= 0.14
macro iter   2 (  3 JK    1 micro), CASSCF E = -2.00560656648956  dE = -2.66994988e-06  S^2 = 0.0000018
               |grad[o]|=0.00186  |grad[c]|=0.000145  |ddm|=0.000663  |maxRot[o]|=0.000758
macro iter   3 (  3 JK    1 micro), CASSCF E = -2.00560657366530  dE = -7.17573778e-09  S^2 = 0.0000016
               |grad[o]|=7.96e-05  |grad[c]|=2.42e-05  |ddm|=9.84e-05  |maxRot[o]|=4.21e-05
1-step CASSCF converged in   3 macro ( 20 JK   6 micro) steps
CASSCF canonicalization
Density matrix diagonal elements [1.35169339 1.22875329 0.77392375 0.64562957]
CASSCF energy = -2.00560657366530
CASCI E = -2.00560657366530  E(CI) = -2.92284707259330  S^2 = 0.0000016
