21.json
[['H', (0.0, 0.0, 0.0)], ['H', (2.4000000953674316, 0.0, 0.0)], ['H', (4.800000190734863, 0.0, 0.0)], ['H', (7.199999809265137, 0.0, 0.0)]]
overwrite output file: results/fig6/cas_init_result/log_21.txt

Running CASSCF with NN initial guess...
CASSCF (NN guess) took 0.05 seconds

Running CASSCF with HF initial guess...
CASSCF (HF guess) took 0.07 seconds

Date: Mon Aug 25 00:39:52 2025
PySCF version 2.10.0
PySCF path  /opt/anaconda3/envs/vqe_env/lib/python3.11/site-packages/pyscf

[CONFIG] conf_file None
[INPUT] verbose = 4
[INPUT] num. atoms = 4
[INPUT] num. electrons = 4
[INPUT] charge = 0
[INPUT] spin (= nelec alpha-beta = 2S) = 0
[INPUT] symmetry False subgroup None
[INPUT] Mole.unit = angstrom
[INPUT] Symbol           X                Y                Z      unit          X                Y                Z       unit  Magmom
[INPUT]  1 H      0.000000000000   0.000000000000   0.000000000000 AA    0.000000000000   0.000000000000   0.000000000000 Bohr   0.0
[INPUT]  2 H      2.400000095367   0.000000000000   0.000000000000 AA    4.535342879174   0.000000000000   0.000000000000 Bohr   0.0
[INPUT]  3 H      4.800000190735   0.000000000000   0.000000000000 AA    9.070685758349   0.000000000000   0.000000000000 Bohr   0.0
[INPUT]  4 H      7.199999809265   0.000000000000   0.000000000000 AA   13.606027736432   0.000000000000   0.000000000000 Bohr   0.0

nuclear repulsion = 0.955458874710396
number of shells = 12
number of NR pGTOs = 28
number of NR cGTOs = 20
basis = ccpVDZ
ecp = {}
CPU time:        56.55


******** <class 'pyscf.scf.hf.RHF'> ********
method = RHF
initial guess = minao
damping factor = 0
level_shift factor = 0
DIIS = <class 'pyscf.scf.diis.CDIIS'>
diis_start_cycle = 1
diis_space = 8
diis_damp = 0
SCF conv_tol = 1e-09
SCF conv_tol_grad = None
SCF max_cycles = 50
direct_scf = True
direct_scf_tol = 1e-13
chkfile to save SCF result = /var/folders/2g/30fq15_16yvcsfwpd5x9z9p80000gn/T/tmpmh2gywwr
max_memory 4000 MB (current use 0 MB)
Set gradient conv threshold to 3.16228e-05
Initial guess from minao.
init E= -1.3122045794341
  HOMO = -0.209885222853834  LUMO = -0.153890525167886
cycle= 1 E= -1.74658132541921  delta_E= -0.434  |g|= 0.0617  |ddm|= 1.18
  HOMO = -0.326112273322261  LUMO = -0.117660898661739
cycle= 2 E= -1.75193168112635  delta_E= -0.00535  |g|= 0.0226  |ddm|= 0.145
  HOMO = -0.334189891467903  LUMO = -0.112397177936999
cycle= 3 E= -1.75341973256718  delta_E= -0.00149  |g|= 0.0088  |ddm|= 0.0898
  HOMO = -0.337056784972208  LUMO = -0.109459089216885
cycle= 4 E= -1.75366308594033  delta_E= -0.000243  |g|= 0.0034  |ddm|= 0.0475
  HOMO = -0.337276479063214  LUMO = -0.108627833364236
cycle= 5 E= -1.75367932973319  delta_E= -1.62e-05  |g|= 0.000243  |ddm|= 0.00963
  HOMO = -0.3372851354542  LUMO = -0.108639209930608
cycle= 6 E= -1.75367938336228  delta_E= -5.36e-08  |g|= 1.56e-05  |ddm|= 0.000596
  HOMO = -0.337289588879257  LUMO = -0.108631487088331
cycle= 7 E= -1.75367938351641  delta_E= -1.54e-10  |g|= 7.19e-07  |ddm|= 2.49e-05
  HOMO = -0.337289312148145  LUMO = -0.108632602250528
Extra cycle  E= -1.75367938351687  delta_E= -4.59e-13  |g|= 2.05e-07  |ddm|= 1.54e-06
converged SCF energy = -1.75367938351687


******** <class 'pyscf.scf.hf.RHF'> ********
method = RHF
initial guess = minao
damping factor = 0
level_shift factor = 0
DIIS = <class 'pyscf.scf.diis.CDIIS'>
diis_start_cycle = 1
diis_space = 8
diis_damp = 0
SCF conv_tol = 1e-09
SCF conv_tol_grad = None
SCF max_cycles = 50
direct_scf = True
direct_scf_tol = 1e-13
chkfile to save SCF result = /var/folders/2g/30fq15_16yvcsfwpd5x9z9p80000gn/T/tmpv5gbkjt9
max_memory 4000 MB (current use 0 MB)
Set gradient conv threshold to 3.16228e-05
Initial guess from minao.
init E= -1.3122045794341
  HOMO = -0.209885222853834  LUMO = -0.153890525167886
cycle= 1 E= -1.74658132541921  delta_E= -0.434  |g|= 0.0617  |ddm|= 1.18
  HOMO = -0.326112273322261  LUMO = -0.117660898661739
cycle= 2 E= -1.75193168112635  delta_E= -0.00535  |g|= 0.0226  |ddm|= 0.145
  HOMO = -0.334189891467904  LUMO = -0.112397177937
cycle= 3 E= -1.75341973256718  delta_E= -0.00149  |g|= 0.0088  |ddm|= 0.0898
  HOMO = -0.337056784972207  LUMO = -0.109459089216884
cycle= 4 E= -1.75366308594033  delta_E= -0.000243  |g|= 0.0034  |ddm|= 0.0475
  HOMO = -0.337276479063213  LUMO = -0.108627833364236
cycle= 5 E= -1.75367932973319  delta_E= -1.62e-05  |g|= 0.000243  |ddm|= 0.00963
  HOMO = -0.3372851354542  LUMO = -0.108639209930607
cycle= 6 E= -1.75367938336228  delta_E= -5.36e-08  |g|= 1.56e-05  |ddm|= 0.000596
  HOMO = -0.337289588879258  LUMO = -0.10863148708833
cycle= 7 E= -1.75367938351641  delta_E= -1.54e-10  |g|= 7.19e-07  |ddm|= 2.49e-05
  HOMO = -0.337289312148145  LUMO = -0.108632602250527
Extra cycle  E= -1.75367938351687  delta_E= -4.59e-13  |g|= 2.05e-07  |ddm|= 1.54e-06
converged SCF energy = -1.75367938351687

******** <class 'pyscf.mcscf.mc1step.CASSCF'> ********
CAS (2e+2e, 4o), ncore = 0, nvir = 16
max_cycle_macro = 50
max_cycle_micro = 4
conv_tol = 1e-07
conv_tol_grad = None
orbital rotation max_stepsize = 0.02
orbital rotation threshold for CI restart = 0.01
augmented hessian ah_max_cycle = 30
augmented hessian ah_conv_tol = 1e-12
augmented hessian ah_linear dependence = 1e-14
augmented hessian ah_level shift = 1e-08
augmented hessian ah_start_tol = 2.5
augmented hessian ah_start_cycle = 3
augmented hessian ah_grad_trust_region = 3
kf_trust_region = 3
kf_interval = 4
ci_response_space = 4
ci_grad_trust_region = 3
with_dep4 0
natorb = False
canonicalization = True
sorting_mo_energy = False
ao2mo_level = 2
chkfile = /var/folders/2g/30fq15_16yvcsfwpd5x9z9p80000gn/T/tmpv5gbkjt9
max_memory 4000 MB (current use 0 MB)
internal_rotation = False
******** <class 'pyscf.fci.direct_spin1.FCISolver'> ********
max. cycles = 50
conv_tol = 1e-08
davidson only = False
linear dependence = 1e-12
level shift = 0.001
max iter space = 12
max_memory 4000 MB
nroots = 1
pspace_size = 400
spin = None
CASCI E = -2.00828013048230  S^2 = 0.0000000
Set conv_tol_grad to 0.000316228
macro iter   1 ( 11 JK    4 micro), CASSCF E = -2.00852966228854  dE = -2.49531806e-04  S^2 = 0.0000042
               |grad[o]|=0.0184  |grad[c]|=0.000281  |ddm|=0.0182  |maxRot[o]|=0.00767
macro iter   2 (  3 JK    1 micro), CASSCF E = -2.00852967065145  dE = -8.36291036e-09  S^2 = 0.0000035
               |grad[o]|=3.5e-05  |grad[c]|=4.26e-05  |ddm|=7.6e-05  |maxRot[o]|=1.89e-05
1-step CASSCF converged in   2 macro ( 14 JK   5 micro) steps
CASSCF canonicalization
Density matrix diagonal elements [1.39940729 1.18647012 0.73985671 0.67426588]
CASSCF energy = -2.00852967065145
CASCI E = -2.00852967065145  E(CI) = -2.96398854536185  S^2 = 0.0000035


******** <class 'pyscf.scf.hf.RHF'> ********
method = RHF
initial guess = minao
damping factor = 0
level_shift factor = 0
DIIS = <class 'pyscf.scf.diis.CDIIS'>
diis_start_cycle = 1
diis_space = 8
diis_damp = 0
SCF conv_tol = 1e-09
SCF conv_tol_grad = None
SCF max_cycles = 50
direct_scf = True
direct_scf_tol = 1e-13
chkfile to save SCF result = /var/folders/2g/30fq15_16yvcsfwpd5x9z9p80000gn/T/tmpcq4xisar
max_memory 4000 MB (current use 0 MB)
Set gradient conv threshold to 3.16228e-05
Initial guess from minao.
init E= -1.3122045794341
  HOMO = -0.209885222853834  LUMO = -0.153890525167886
cycle= 1 E= -1.74658132541921  delta_E= -0.434  |g|= 0.0617  |ddm|= 1.18
  HOMO = -0.326112273322261  LUMO = -0.117660898661739
cycle= 2 E= -1.75193168112635  delta_E= -0.00535  |g|= 0.0226  |ddm|= 0.145
  HOMO = -0.334189891467903  LUMO = -0.112397177936999
cycle= 3 E= -1.75341973256718  delta_E= -0.00149  |g|= 0.0088  |ddm|= 0.0898
  HOMO = -0.337056784972207  LUMO = -0.109459089216885
cycle= 4 E= -1.75366308594033  delta_E= -0.000243  |g|= 0.0034  |ddm|= 0.0475
  HOMO = -0.337276479063213  LUMO = -0.108627833364236
cycle= 5 E= -1.75367932973319  delta_E= -1.62e-05  |g|= 0.000243  |ddm|= 0.00963
  HOMO = -0.3372851354542  LUMO = -0.108639209930607
cycle= 6 E= -1.75367938336228  delta_E= -5.36e-08  |g|= 1.56e-05  |ddm|= 0.000596
  HOMO = -0.337289588879256  LUMO = -0.108631487088332
cycle= 7 E= -1.75367938351641  delta_E= -1.54e-10  |g|= 7.19e-07  |ddm|= 2.49e-05
  HOMO = -0.337289312148145  LUMO = -0.108632602250527
Extra cycle  E= -1.75367938351687  delta_E= -4.6e-13  |g|= 2.05e-07  |ddm|= 1.54e-06
converged SCF energy = -1.75367938351687

******** <class 'pyscf.mcscf.mc1step.CASSCF'> ********
CAS (2e+2e, 4o), ncore = 0, nvir = 16
max_cycle_macro = 50
max_cycle_micro = 4
conv_tol = 1e-07
conv_tol_grad = None
orbital rotation max_stepsize = 0.02
orbital rotation threshold for CI restart = 0.01
augmented hessian ah_max_cycle = 30
augmented hessian ah_conv_tol = 1e-12
augmented hessian ah_linear dependence = 1e-14
augmented hessian ah_level shift = 1e-08
augmented hessian ah_start_tol = 2.5
augmented hessian ah_start_cycle = 3
augmented hessian ah_grad_trust_region = 3
kf_trust_region = 3
kf_interval = 4
ci_response_space = 4
ci_grad_trust_region = 3
with_dep4 0
natorb = False
canonicalization = True
sorting_mo_energy = False
ao2mo_level = 2
chkfile = /var/folders/2g/30fq15_16yvcsfwpd5x9z9p80000gn/T/tmpcq4xisar
max_memory 4000 MB (current use 0 MB)
internal_rotation = False
******** <class 'pyscf.fci.direct_spin1.FCISolver'> ********
max. cycles = 50
conv_tol = 1e-08
davidson only = False
linear dependence = 1e-12
level shift = 0.001
max iter space = 12
max_memory 4000 MB
nroots = 1
pspace_size = 400
spin = None
CASCI E = -1.97126335854242  S^2 = 0.0000000
Set conv_tol_grad to 0.000316228
macro iter   1 ( 14 JK    4 micro), CASSCF E = -2.00852603387182  dE = -3.72626753e-02  S^2 = 0.0000021
               |grad[o]|=0.159  |grad[c]|=0.0374  |ddm|=0.103  |maxRot[o]|=0.148
macro iter   2 (  3 JK    1 micro), CASSCF E = -2.00852969014827  dE = -3.65627645e-06  S^2 = 0.0000018
               |grad[o]|=0.00215  |grad[c]|=0.000241  |ddm|=0.00119  |maxRot[o]|=0.000954
macro iter   3 (  3 JK    1 micro), CASSCF E = -2.00852970789925  dE = -1.77509865e-08  S^2 = 0.0000015
               |grad[o]|=0.000127  |grad[c]|=4.06e-05  |ddm|=0.000187  |maxRot[o]|=6.02e-05
1-step CASSCF converged in   3 macro ( 20 JK   6 micro) steps
CASSCF canonicalization
Density matrix diagonal elements [1.39986472 1.26432492 0.73910048 0.59670989]
CASSCF energy = -2.00852970789925
CASCI E = -2.00852970789925  E(CI) = -2.96398858260965  S^2 = 0.0000015
