20.json
[['H', (0.0, 0.0, 0.0)], ['H', (2.299999952316284, 0.0, 0.0)], ['H', (4.599999904632568, 0.0, 0.0)], ['H', (6.900000095367432, 0.0, 0.0)]]
overwrite output file: results/fig6/cas_init_result/log_20.txt

Running CASSCF with NN initial guess...
CASSCF (NN guess) took 0.06 seconds

Running CASSCF with HF initial guess...
CASSCF (HF guess) took 0.08 seconds
0
Date: Mon Aug 25 00:39:52 2025
PySCF version 2.10.0
PySCF path  /opt/anaconda3/envs/vqe_env/lib/python3.11/site-packages/pyscf

[CONFIG] conf_file None
[INPUT] verbose = 4
[INPUT] num. atoms = 4
[INPUT] num. electrons = 4
[INPUT] charge = 0
[INPUT] spin (= nelec alpha-beta = 2S) = 0
[INPUT] symmetry False subgroup None
[INPUT] Mole.unit = angstrom
[INPUT] Symbol           X                Y                Z      unit          X                Y                Z       unit  Magmom
[INPUT]  1 H      0.000000000000   0.000000000000   0.000000000000 AA    0.000000000000   0.000000000000   0.000000000000 Bohr   0.0
[INPUT]  2 H      2.299999952316   0.000000000000   0.000000000000 AA    4.346369996390   0.000000000000   0.000000000000 Bohr   0.0
[INPUT]  3 H      4.599999904633   0.000000000000   0.000000000000 AA    8.692739992781   0.000000000000   0.000000000000 Bohr   0.0
[INPUT]  4 H      6.900000095367   0.000000000000   0.000000000000 AA   13.039110439717   0.000000000000   0.000000000000 Bohr   0.0

nuclear repulsion = 0.997000530520622
number of shells = 12
number of NR pGTOs = 28
number of NR cGTOs = 20
basis = ccpVDZ
ecp = {}
CPU time:        58.55


******** <class 'pyscf.scf.hf.RHF'> ********
method = RHF
initial guess = minao
damping factor = 0
level_shift factor = 0
DIIS = <class 'pyscf.scf.diis.CDIIS'>
diis_start_cycle = 1
diis_space = 8
diis_damp = 0
SCF conv_tol = 1e-09
SCF conv_tol_grad = None
SCF max_cycles = 50
direct_scf = True
direct_scf_tol = 1e-13
chkfile to save SCF result = /var/folders/2g/30fq15_16yvcsfwpd5x9z9p80000gn/T/tmpzhz_ta9c
max_memory 4000 MB (current use 0 MB)
Set gradient conv threshold to 3.16228e-05
Initial guess from minao.
init E= -1.31512049706848
  HOMO = -0.21363350651422  LUMO = -0.149832745931037
cycle= 1 E= -1.76792332284067  delta_E= -0.453  |g|= 0.063  |ddm|= 1.16
  HOMO = -0.33164580230086  LUMO = -0.112421575804179
cycle= 2 E= -1.77324610874191  delta_E= -0.00532  |g|= 0.0229  |ddm|= 0.144
  HOMO = -0.339423818317286  LUMO = -0.106853064595147
cycle= 3 E= -1.77466321059081  delta_E= -0.00142  |g|= 0.00859  |ddm|= 0.0868
  HOMO = -0.342149543168669  LUMO = -0.104136229072882
cycle= 4 E= -1.7748773872055  delta_E= -0.000214  |g|= 0.00302  |ddm|= 0.0433
  HOMO = -0.342342276400088  LUMO = -0.103317365366828
cycle= 5 E= -1.77489046962245  delta_E= -1.31e-05  |g|= 0.00022  |ddm|= 0.00861
  HOMO = -0.342360052313783  LUMO = -0.103323846568258
cycle= 6 E= -1.77489051138627  delta_E= -4.18e-08  |g|= 1.33e-05  |ddm|= 0.000522
  HOMO = -0.342362528716157  LUMO = -0.10331788923935
cycle= 7 E= -1.7748905114922  delta_E= -1.06e-10  |g|= 6.49e-07  |ddm|= 2.02e-05
  HOMO = -0.342362464333447  LUMO = -0.103318795770026
Extra cycle  E= -1.77489051149248  delta_E= -2.82e-13  |g|= 1.55e-07  |ddm|= 1.27e-06
converged SCF energy = -1.77489051149248


******** <class 'pyscf.scf.hf.RHF'> ********
method = RHF
initial guess = minao
damping factor = 0
level_shift factor = 0
DIIS = <class 'pyscf.scf.diis.CDIIS'>
diis_start_cycle = 1
diis_space = 8
diis_damp = 0
SCF conv_tol = 1e-09
SCF conv_tol_grad = None
SCF max_cycles = 50
direct_scf = True
direct_scf_tol = 1e-13
chkfile to save SCF result = /var/folders/2g/30fq15_16yvcsfwpd5x9z9p80000gn/T/tmpic8y6s_1
max_memory 4000 MB (current use 0 MB)
Set gradient conv threshold to 3.16228e-05
Initial guess from minao.
init E= -1.31512049706848
  HOMO = -0.21363350651422  LUMO = -0.149832745931037
cycle= 1 E= -1.76792332284067  delta_E= -0.453  |g|= 0.063  |ddm|= 1.16
  HOMO = -0.331645802300861  LUMO = -0.11242157580418
cycle= 2 E= -1.77324610874192  delta_E= -0.00532  |g|= 0.0229  |ddm|= 0.144
  HOMO = -0.339423818317285  LUMO = -0.106853064595146
cycle= 3 E= -1.77466321059081  delta_E= -0.00142  |g|= 0.00859  |ddm|= 0.0868
  HOMO = -0.342149543168669  LUMO = -0.104136229072884
cycle= 4 E= -1.7748773872055  delta_E= -0.000214  |g|= 0.00302  |ddm|= 0.0433
  HOMO = -0.342342276400089  LUMO = -0.103317365366828
cycle= 5 E= -1.77489046962245  delta_E= -1.31e-05  |g|= 0.00022  |ddm|= 0.00861
  HOMO = -0.342360052313783  LUMO = -0.103323846568258
cycle= 6 E= -1.77489051138627  delta_E= -4.18e-08  |g|= 1.33e-05  |ddm|= 0.000522
  HOMO = -0.342362528716156  LUMO = -0.10331788923935
cycle= 7 E= -1.7748905114922  delta_E= -1.06e-10  |g|= 6.49e-07  |ddm|= 2.02e-05
  HOMO = -0.342362464333447  LUMO = -0.103318795770026
Extra cycle  E= -1.77489051149248  delta_E= -2.84e-13  |g|= 1.55e-07  |ddm|= 1.27e-06
converged SCF energy = -1.77489051149248

******** <class 'pyscf.mcscf.mc1step.CASSCF'> ********
CAS (2e+2e, 4o), ncore = 0, nvir = 16
max_cycle_macro = 50
max_cycle_micro = 4
conv_tol = 1e-07
conv_tol_grad = None
orbital rotation max_stepsize = 0.02
orbital rotation threshold for CI restart = 0.01
augmented hessian ah_max_cycle = 30
augmented hessian ah_conv_tol = 1e-12
augmented hessian ah_linear dependence = 1e-14
augmented hessian ah_level shift = 1e-08
augmented hessian ah_start_tol = 2.5
augmented hessian ah_start_cycle = 3
augmented hessian ah_grad_trust_region = 3
kf_trust_region = 3
kf_interval = 4
ci_response_space = 4
ci_grad_trust_region = 3
with_dep4 0
natorb = False
canonicalization = True
sorting_mo_energy = False
ao2mo_level = 2
chkfile = /var/folders/2g/30fq15_16yvcsfwpd5x9z9p80000gn/T/tmpic8y6s_1
max_memory 4000 MB (current use 0 MB)
internal_rotation = False
******** <class 'pyscf.fci.direct_spin1.FCISolver'> ********
max. cycles = 50
conv_tol = 1e-08
davidson only = False
linear dependence = 1e-12
level shift = 0.001
max iter space = 12
max_memory 4000 MB
nroots = 1
pspace_size = 400
spin = None
CASCI E = -2.01228326309741  S^2 = 0.0000000
Set conv_tol_grad to 0.000316228
macro iter   1 ( 11 JK    4 micro), CASSCF E = -2.01238374676202  dE = -1.00483665e-04  S^2 = 0.0000002
               |grad[o]|=0.0134  |grad[c]|=0.000118  |ddm|=0.00686  |maxRot[o]|=0.00395
macro iter   2 (  1 JK    1 micro), CASSCF E = -2.01238374790559  dE = -1.14356791e-09  S^2 = 0.0000002
               |grad[o]|=1.24e-05  |grad[c]|=1.99e-05  |ddm|=3.84e-05  |maxRot[o]|=    0
1-step CASSCF converged in   2 macro ( 12 JK   5 micro) steps
CASSCF canonicalization
Density matrix diagonal elements [1.44850341 1.26025205 0.70319169 0.58805284]
CASSCF energy = -2.01238374790559
CASCI E = -2.01238374790559  E(CI) = -3.00938427842621  S^2 = 0.0000002


******** <class 'pyscf.scf.hf.RHF'> ********
method = RHF
initial guess = minao
damping factor = 0
level_shift factor = 0
DIIS = <class 'pyscf.scf.diis.CDIIS'>
diis_start_cycle = 1
diis_space = 8
diis_damp = 0
SCF conv_tol = 1e-09
SCF conv_tol_grad = None
SCF max_cycles = 50
direct_scf = True
direct_scf_tol = 1e-13
chkfile to save SCF result = /var/folders/2g/30fq15_16yvcsfwpd5x9z9p80000gn/T/tmp3yn3k96u
max_memory 4000 MB (current use 0 MB)
Set gradient conv threshold to 3.16228e-05
Initial guess from minao.
init E= -1.31512049706848
  HOMO = -0.21363350651422  LUMO = -0.149832745931038
cycle= 1 E= -1.76792332284067  delta_E= -0.453  |g|= 0.063  |ddm|= 1.16
  HOMO = -0.331645802300861  LUMO = -0.112421575804179
cycle= 2 E= -1.77324610874192  delta_E= -0.00532  |g|= 0.0229  |ddm|= 0.144
  HOMO = -0.339423818317285  LUMO = -0.106853064595146
cycle= 3 E= -1.77466321059081  delta_E= -0.00142  |g|= 0.00859  |ddm|= 0.0868
  HOMO = -0.342149543168669  LUMO = -0.104136229072885
cycle= 4 E= -1.7748773872055  delta_E= -0.000214  |g|= 0.00302  |ddm|= 0.0433
  HOMO = -0.342342276400089  LUMO = -0.103317365366828
cycle= 5 E= -1.77489046962245  delta_E= -1.31e-05  |g|= 0.00022  |ddm|= 0.00861
  HOMO = -0.342360052313783  LUMO = -0.103323846568258
cycle= 6 E= -1.77489051138627  delta_E= -4.18e-08  |g|= 1.33e-05  |ddm|= 0.000522
  HOMO = -0.342362528716155  LUMO = -0.103317889239354
cycle= 7 E= -1.7748905114922  delta_E= -1.06e-10  |g|= 6.49e-07  |ddm|= 2.02e-05
  HOMO = -0.342362464333447  LUMO = -0.103318795770026
Extra cycle  E= -1.77489051149248  delta_E= -2.87e-13  |g|= 1.55e-07  |ddm|= 1.27e-06
converged SCF energy = -1.77489051149248

******** <class 'pyscf.mcscf.mc1step.CASSCF'> ********
CAS (2e+2e, 4o), ncore = 0, nvir = 16
max_cycle_macro = 50
max_cycle_micro = 4
conv_tol = 1e-07
conv_tol_grad = None
orbital rotation max_stepsize = 0.02
orbital rotation threshold for CI restart = 0.01
augmented hessian ah_max_cycle = 30
augmented hessian ah_conv_tol = 1e-12
augmented hessian ah_linear dependence = 1e-14
augmented hessian ah_level shift = 1e-08
augmented hessian ah_start_tol = 2.5
augmented hessian ah_start_cycle = 3
augmented hessian ah_grad_trust_region = 3
kf_trust_region = 3
kf_interval = 4
ci_response_space = 4
ci_grad_trust_region = 3
with_dep4 0
natorb = False
canonicalization = True
sorting_mo_energy = False
ao2mo_level = 2
chkfile = /var/folders/2g/30fq15_16yvcsfwpd5x9z9p80000gn/T/tmp3yn3k96u
max_memory 4000 MB (current use 0 MB)
internal_rotation = False
******** <class 'pyscf.fci.direct_spin1.FCISolver'> ********
max. cycles = 50
conv_tol = 1e-08
davidson only = False
linear dependence = 1e-12
level shift = 0.001
max iter space = 12
max_memory 4000 MB
nroots = 1
pspace_size = 400
spin = None
CASCI E = -1.97553287659934  S^2 = 0.0000000
Set conv_tol_grad to 0.000316228
macro iter   1 ( 14 JK    4 micro), CASSCF E = -2.01238033832253  dE = -3.68474617e-02  S^2 = 0.0000016
               |grad[o]|=0.156  |grad[c]|=0.037  |ddm|=0.111  |maxRot[o]|=0.144
macro iter   2 (  3 JK    1 micro), CASSCF E = -2.01238373096397  dE = -3.39264144e-06  S^2 = 0.0000013
               |grad[o]|=0.00213  |grad[c]|=0.000222  |ddm|=0.00107  |maxRot[o]|=0.000851
macro iter   3 (  3 JK    1 micro), CASSCF E = -2.01238374630612  dE = -1.53421471e-08  S^2 = 0.0000010
               |grad[o]|=0.000116  |grad[c]|=4.04e-05  |ddm|=0.000184  |maxRot[o]|=6e-05
1-step CASSCF converged in   3 macro ( 20 JK   6 micro) steps
CASSCF canonicalization
Density matrix diagonal elements [1.4519758  1.30466697 0.69964872 0.5437085 ]
CASSCF energy = -2.01238374630612
CASCI E = -2.01238374630612  E(CI) = -3.00938427682674  S^2 = 0.0000010
