9.json
[['H', (0.0, 0.0, 0.0)], ['H', (1.2000000476837158, 0.0, 0.0)], ['H', (2.4000000953674316, 0.0, 0.0)], ['H', (3.5999999046325684, 0.0, 0.0)]]
overwrite output file: results/fig6/cas_init_result/log_9.txt

Running CASSCF with NN initial guess...
CASSCF (NN guess) took 0.05 seconds

Running CASSCF with HF initial guess...
CASSCF (HF guess) took 0.13 seconds

Date: Mon Aug 25 00:39:50 2025
PySCF version 2.10.0
PySCF path  /opt/anaconda3/envs/vqe_env/lib/python3.11/site-packages/pyscf

[CONFIG] conf_file None
[INPUT] verbose = 4
[INPUT] num. atoms = 4
[INPUT] num. electrons = 4
[INPUT] charge = 0
[INPUT] spin (= nelec alpha-beta = 2S) = 0
[INPUT] symmetry False subgroup None
[INPUT] Mole.unit = angstrom
[INPUT] Symbol           X                Y                Z      unit          X                Y                Z       unit  Magmom
[INPUT]  1 H      0.000000000000   0.000000000000   0.000000000000 AA    0.000000000000   0.000000000000   0.000000000000 Bohr   0.0
[INPUT]  2 H      1.200000047684   0.000000000000   0.000000000000 AA    2.267671439587   0.000000000000   0.000000000000 Bohr   0.0
[INPUT]  3 H      2.400000095367   0.000000000000   0.000000000000 AA    4.535342879174   0.000000000000   0.000000000000 Bohr   0.0
[INPUT]  4 H      3.599999904633   0.000000000000   0.000000000000 AA    6.803013868216   0.000000000000   0.000000000000 Bohr   0.0

nuclear repulsion = 1.91091774942079
number of shells = 12
number of NR pGTOs = 28
number of NR cGTOs = 20
basis = ccpVDZ
ecp = {}
CPU time:        46.42


******** <class 'pyscf.scf.hf.RHF'> ********
method = RHF
initial guess = minao
damping factor = 0
level_shift factor = 0
DIIS = <class 'pyscf.scf.diis.CDIIS'>
diis_start_cycle = 1
diis_space = 8
diis_damp = 0
SCF conv_tol = 1e-09
SCF conv_tol_grad = None
SCF max_cycles = 50
direct_scf = True
direct_scf_tol = 1e-13
chkfile to save SCF result = /var/folders/2g/30fq15_16yvcsfwpd5x9z9p80000gn/T/tmp6nakqyui
max_memory 4000 MB (current use 0 MB)
Set gradient conv threshold to 3.16228e-05
Initial guess from minao.
init E= -1.52415060051611
  HOMO = -0.298734627899625  LUMO = -0.0261650162919483
cycle= 1 E= -2.10537398676467  delta_E= -0.581  |g|= 0.0819  |ddm|= 0.988
  HOMO = -0.420238936904714  LUMO = 0.0235733567010962
cycle= 2 E= -2.11000630427125  delta_E= -0.00463  |g|= 0.0236  |ddm|= 0.217
  HOMO = -0.418036367922376  LUMO = 0.0362043533143163
cycle= 3 E= -2.11056106817266  delta_E= -0.000555  |g|= 0.00539  |ddm|= 0.0831
  HOMO = -0.419747388777564  LUMO = 0.0369483222030273
cycle= 4 E= -2.1105907274005  delta_E= -2.97e-05  |g|= 0.000651  |ddm|= 0.0218
  HOMO = -0.419840674614689  LUMO = 0.037078796578159
cycle= 5 E= -2.11059106116518  delta_E= -3.34e-07  |g|= 2.96e-05  |ddm|= 0.00162
  HOMO = -0.419857347919413  LUMO = 0.0370738301734951
cycle= 6 E= -2.11059106158226  delta_E= -4.17e-10  |g|= 1.25e-06  |ddm|= 7.59e-05
  HOMO = -0.419856340185849  LUMO = 0.0370734412443748
Extra cycle  E= -2.11059106158317  delta_E= -9.09e-13  |g|= 2.95e-07  |ddm|= 4.83e-06
converged SCF energy = -2.11059106158317


******** <class 'pyscf.scf.hf.RHF'> ********
method = RHF
initial guess = minao
damping factor = 0
level_shift factor = 0
DIIS = <class 'pyscf.scf.diis.CDIIS'>
diis_start_cycle = 1
diis_space = 8
diis_damp = 0
SCF conv_tol = 1e-09
SCF conv_tol_grad = None
SCF max_cycles = 50
direct_scf = True
direct_scf_tol = 1e-13
chkfile to save SCF result = /var/folders/2g/30fq15_16yvcsfwpd5x9z9p80000gn/T/tmp9nleh8xx
max_memory 4000 MB (current use 0 MB)
Set gradient conv threshold to 3.16228e-05
Initial guess from minao.
init E= -1.52415060051611
  HOMO = -0.298734627899626  LUMO = -0.0261650162919477
cycle= 1 E= -2.10537398676467  delta_E= -0.581  |g|= 0.0819  |ddm|= 0.988
  HOMO = -0.420238936904714  LUMO = 0.0235733567010963
cycle= 2 E= -2.11000630427125  delta_E= -0.00463  |g|= 0.0236  |ddm|= 0.217
  HOMO = -0.418036367922375  LUMO = 0.0362043533143175
cycle= 3 E= -2.11056106817266  delta_E= -0.000555  |g|= 0.00539  |ddm|= 0.0831
  HOMO = -0.419747388777565  LUMO = 0.0369483222030271
cycle= 4 E= -2.11059072740051  delta_E= -2.97e-05  |g|= 0.000651  |ddm|= 0.0218
  HOMO = -0.419840674614688  LUMO = 0.0370787965781601
cycle= 5 E= -2.11059106116518  delta_E= -3.34e-07  |g|= 2.96e-05  |ddm|= 0.00162
  HOMO = -0.419857347919413  LUMO = 0.0370738301734948
cycle= 6 E= -2.11059106158225  delta_E= -4.17e-10  |g|= 1.25e-06  |ddm|= 7.59e-05
  HOMO = -0.41985634018585  LUMO = 0.0370734412443732
Extra cycle  E= -2.11059106158316  delta_E= -9.11e-13  |g|= 2.95e-07  |ddm|= 4.83e-06
converged SCF energy = -2.11059106158316

******** <class 'pyscf.mcscf.mc1step.CASSCF'> ********
CAS (2e+2e, 4o), ncore = 0, nvir = 16
max_cycle_macro = 50
max_cycle_micro = 4
conv_tol = 1e-07
conv_tol_grad = None
orbital rotation max_stepsize = 0.02
orbital rotation threshold for CI restart = 0.01
augmented hessian ah_max_cycle = 30
augmented hessian ah_conv_tol = 1e-12
augmented hessian ah_linear dependence = 1e-14
augmented hessian ah_level shift = 1e-08
augmented hessian ah_start_tol = 2.5
augmented hessian ah_start_cycle = 3
augmented hessian ah_grad_trust_region = 3
kf_trust_region = 3
kf_interval = 4
ci_response_space = 4
ci_grad_trust_region = 3
with_dep4 0
natorb = False
canonicalization = True
sorting_mo_energy = False
ao2mo_level = 2
chkfile = /var/folders/2g/30fq15_16yvcsfwpd5x9z9p80000gn/T/tmp9nleh8xx
max_memory 4000 MB (current use 0 MB)
internal_rotation = False
******** <class 'pyscf.fci.direct_spin1.FCISolver'> ********
max. cycles = 50
conv_tol = 1e-08
davidson only = False
linear dependence = 1e-12
level shift = 0.001
max iter space = 12
max_memory 4000 MB
nroots = 1
pspace_size = 400
spin = None
CASCI E = -2.18028831439085  S^2 = 0.0000000
Set conv_tol_grad to 0.000316228
macro iter   1 ( 10 JK    4 micro), CASSCF E = -2.18126103684260  dE = -9.72722452e-04  S^2 = 0.0000000
               |grad[o]|=0.0437  |grad[c]|=0.00124  |ddm|=0.0148  |maxRot[o]|=0.0295
macro iter   2 (  3 JK    1 micro), CASSCF E = -2.18126108065291  dE = -4.38103154e-08  S^2 = 0.0000000
               |grad[o]|=0.000163  |grad[c]|=4.22e-05  |ddm|=6.38e-05  |maxRot[o]|=0.000287
1-step CASSCF converged in   2 macro ( 13 JK   5 micro) steps
CASSCF canonicalization
Density matrix diagonal elements [1.94021649 1.86324713 0.14024594 0.05629044]
CASSCF energy = -2.18126108065291
CASCI E = -2.18126108065291  E(CI) = -4.09217883007370  S^2 = 0.0000000


******** <class 'pyscf.scf.hf.RHF'> ********
method = RHF
initial guess = minao
damping factor = 0
level_shift factor = 0
DIIS = <class 'pyscf.scf.diis.CDIIS'>
diis_start_cycle = 1
diis_space = 8
diis_damp = 0
SCF conv_tol = 1e-09
SCF conv_tol_grad = None
SCF max_cycles = 50
direct_scf = True
direct_scf_tol = 1e-13
chkfile to save SCF result = /var/folders/2g/30fq15_16yvcsfwpd5x9z9p80000gn/T/tmp19kv54i3
max_memory 4000 MB (current use 0 MB)
Set gradient conv threshold to 3.16228e-05
Initial guess from minao.
init E= -1.52415060051611
  HOMO = -0.298734627899626  LUMO = -0.0261650162919479
cycle= 1 E= -2.10537398676467  delta_E= -0.581  |g|= 0.0819  |ddm|= 0.988
  HOMO = -0.420238936904715  LUMO = 0.0235733567010958
cycle= 2 E= -2.11000630427125  delta_E= -0.00463  |g|= 0.0236  |ddm|= 0.217
  HOMO = -0.418036367922375  LUMO = 0.0362043533143175
cycle= 3 E= -2.11056106817266  delta_E= -0.000555  |g|= 0.00539  |ddm|= 0.0831
  HOMO = -0.419747388777566  LUMO = 0.0369483222030265
cycle= 4 E= -2.1105907274005  delta_E= -2.97e-05  |g|= 0.000651  |ddm|= 0.0218
  HOMO = -0.419840674614689  LUMO = 0.0370787965781595
cycle= 5 E= -2.11059106116518  delta_E= -3.34e-07  |g|= 2.96e-05  |ddm|= 0.00162
  HOMO = -0.419857347919411  LUMO = 0.0370738301734964
cycle= 6 E= -2.11059106158225  delta_E= -4.17e-10  |g|= 1.25e-06  |ddm|= 7.59e-05
  HOMO = -0.419856340185849  LUMO = 0.0370734412443744
Extra cycle  E= -2.11059106158316  delta_E= -9.09e-13  |g|= 2.95e-07  |ddm|= 4.83e-06
converged SCF energy = -2.11059106158316

******** <class 'pyscf.mcscf.mc1step.CASSCF'> ********
CAS (2e+2e, 4o), ncore = 0, nvir = 16
max_cycle_macro = 50
max_cycle_micro = 4
conv_tol = 1e-07
conv_tol_grad = None
orbital rotation max_stepsize = 0.02
orbital rotation threshold for CI restart = 0.01
augmented hessian ah_max_cycle = 30
augmented hessian ah_conv_tol = 1e-12
augmented hessian ah_linear dependence = 1e-14
augmented hessian ah_level shift = 1e-08
augmented hessian ah_start_tol = 2.5
augmented hessian ah_start_cycle = 3
augmented hessian ah_grad_trust_region = 3
kf_trust_region = 3
kf_interval = 4
ci_response_space = 4
ci_grad_trust_region = 3
with_dep4 0
natorb = False
canonicalization = True
sorting_mo_energy = False
ao2mo_level = 2
chkfile = /var/folders/2g/30fq15_16yvcsfwpd5x9z9p80000gn/T/tmp19kv54i3
max_memory 4000 MB (current use 0 MB)
internal_rotation = False
******** <class 'pyscf.fci.direct_spin1.FCISolver'> ********
max. cycles = 50
conv_tol = 1e-08
davidson only = False
linear dependence = 1e-12
level shift = 0.001
max iter space = 12
max_memory 4000 MB
nroots = 1
pspace_size = 400
spin = None
CASCI E = -2.14557847074135  S^2 = 0.0000000
Set conv_tol_grad to 0.000316228
macro iter   1 ( 21 JK    4 micro), CASSCF E = -2.17620100291413  dE = -3.06225322e-02  S^2 = 0.0000000
               |grad[o]|=0.0483  |grad[c]|=0.0297  |ddm|=0.0823  |maxRot[o]|=0.309
macro iter   2 ( 16 JK    4 micro), CASSCF E = -2.18126059269121  dE = -5.05958978e-03  S^2 = 0.0000000
               |grad[o]|=0.0329  |grad[c]|=0.00597  |ddm|=0.0171  |maxRot[o]|=0.183
macro iter   3 (  3 JK    1 micro), CASSCF E = -2.18126107893508  dE = -4.86243867e-07  S^2 = 0.0000000
               |grad[o]|=0.000728  |grad[c]|=0.000154  |ddm|=0.000225  |maxRot[o]|=0.000822
macro iter   4 (  3 JK    1 micro), CASSCF E = -2.18126108175222  dE = -2.81714030e-09  S^2 = 0.0000000
               |grad[o]|=4.41e-05  |grad[c]|=2.56e-05  |ddm|=3.9e-05  |maxRot[o]|=6.07e-05
1-step CASSCF converged in   4 macro ( 43 JK  10 micro) steps
CASSCF canonicalization
Density matrix diagonal elements [1.94031869 1.86903439 0.14011504 0.05053188]
CASSCF energy = -2.18126108175222
CASCI E = -2.18126108175222  E(CI) = -4.09217883117301  S^2 = 0.0000000
