4.json
[['H', (0.0, 0.0, 0.0)], ['H', (0.699999988079071, 0.0, 0.0)], ['H', (1.399999976158142, 0.0, 0.0)], ['H', (2.0999999046325684, 0.0, 0.0)]]
overwrite output file: results/fig6/cas_init_result/log_4.txt

Running CASSCF with NN initial guess...
CASSCF (NN guess) took 0.06 seconds

Running CASSCF with HF initial guess...
CASSCF (HF guess) took 0.22 seconds
.0
Date: Mon Aug 25 00:39:51 2025
PySCF version 2.10.0
PySCF path  /opt/anaconda3/envs/vqe_env/lib/python3.11/site-packages/pyscf

[CONFIG] conf_file None
[INPUT] verbose = 4
[INPUT] num. atoms = 4
[INPUT] num. electrons = 4
[INPUT] charge = 0
[INPUT] spin (= nelec alpha-beta = 2S) = 0
[INPUT] symmetry False subgroup None
[INPUT] Mole.unit = angstrom
[INPUT] Symbol           X                Y                Z      unit          X                Y                Z       unit  Magmom
[INPUT]  1 H      0.000000000000   0.000000000000   0.000000000000 AA    0.000000000000   0.000000000000   0.000000000000 Bohr   0.0
[INPUT]  2 H      0.699999988079   0.000000000000   0.000000000000 AA    1.322808264668   0.000000000000   0.000000000000 Bohr   0.0
[INPUT]  3 H      1.399999976158   0.000000000000   0.000000000000 AA    2.645616529337   0.000000000000   0.000000000000 Bohr   0.0
[INPUT]  4 H      2.099999904633   0.000000000000   0.000000000000 AA    3.968424681368   0.000000000000   0.000000000000 Bohr   0.0

nuclear repulsion = 3.27585906814547
number of shells = 12
number of NR pGTOs = 28
number of NR cGTOs = 20
basis = ccpVDZ
ecp = {}
CPU time:        48.70


******** <class 'pyscf.scf.hf.RHF'> ********
method = RHF
initial guess = minao
damping factor = 0
level_shift factor = 0
DIIS = <class 'pyscf.scf.diis.CDIIS'>
diis_start_cycle = 1
diis_space = 8
diis_damp = 0
SCF conv_tol = 1e-09
SCF conv_tol_grad = None
SCF max_cycles = 50
direct_scf = True
direct_scf_tol = 1e-13
chkfile to save SCF result = /var/folders/2g/30fq15_16yvcsfwpd5x9z9p80000gn/T/tmpfq3843ng
max_memory 4000 MB (current use 0 MB)
Set gradient conv threshold to 3.16228e-05
Initial guess from minao.
init E= -1.89958618131971
  HOMO = -0.340695149201393  LUMO = 0.143377767169158
cycle= 1 E= -2.10983308863202  delta_E= -0.21  |g|= 0.123  |ddm|= 1.16
  HOMO = -0.461789219270431  LUMO = 0.183992001703581
cycle= 2 E= -2.11615125817697  delta_E= -0.00632  |g|= 0.0222  |ddm|= 0.48
  HOMO = -0.44863422103083  LUMO = 0.193970895812011
cycle= 3 E= -2.11637026240077  delta_E= -0.000219  |g|= 0.00298  |ddm|= 0.139
  HOMO = -0.449459776392485  LUMO = 0.194206294002403
cycle= 4 E= -2.11637466595997  delta_E= -4.4e-06  |g|= 0.000301  |ddm|= 0.0278
  HOMO = -0.449545201691297  LUMO = 0.194243035564403
cycle= 5 E= -2.11637472136483  delta_E= -5.54e-08  |g|= 2.68e-05  |ddm|= 0.00309
  HOMO = -0.449541149811806  LUMO = 0.194251537279403
cycle= 6 E= -2.11637472176624  delta_E= -4.01e-10  |g|= 1.58e-06  |ddm|= 0.000187
  HOMO = -0.449540879470118  LUMO = 0.194251586349873
Extra cycle  E= -2.1163747217675  delta_E= -1.26e-12  |g|= 3.65e-07  |ddm|= 1.03e-05
converged SCF energy = -2.1163747217675


******** <class 'pyscf.scf.hf.RHF'> ********
method = RHF
initial guess = minao
damping factor = 0
level_shift factor = 0
DIIS = <class 'pyscf.scf.diis.CDIIS'>
diis_start_cycle = 1
diis_space = 8
diis_damp = 0
SCF conv_tol = 1e-09
SCF conv_tol_grad = None
SCF max_cycles = 50
direct_scf = True
direct_scf_tol = 1e-13
chkfile to save SCF result = /var/folders/2g/30fq15_16yvcsfwpd5x9z9p80000gn/T/tmpdh9f0jlu
max_memory 4000 MB (current use 0 MB)
Set gradient conv threshold to 3.16228e-05
Initial guess from minao.
init E= -1.89958618131971
  HOMO = -0.340695149201394  LUMO = 0.143377767169156
cycle= 1 E= -2.10983308863202  delta_E= -0.21  |g|= 0.123  |ddm|= 1.16
  HOMO = -0.461789219270433  LUMO = 0.183992001703582
cycle= 2 E= -2.11615125817697  delta_E= -0.00632  |g|= 0.0222  |ddm|= 0.48
  HOMO = -0.44863422103083  LUMO = 0.193970895812011
cycle= 3 E= -2.11637026240078  delta_E= -0.000219  |g|= 0.00298  |ddm|= 0.139
  HOMO = -0.449459776392486  LUMO = 0.194206294002404
cycle= 4 E= -2.11637466595996  delta_E= -4.4e-06  |g|= 0.000301  |ddm|= 0.0278
  HOMO = -0.449545201691295  LUMO = 0.194243035564402
cycle= 5 E= -2.11637472136483  delta_E= -5.54e-08  |g|= 2.68e-05  |ddm|= 0.00309
  HOMO = -0.449541149811804  LUMO = 0.194251537279411
cycle= 6 E= -2.11637472176624  delta_E= -4.01e-10  |g|= 1.58e-06  |ddm|= 0.000187
  HOMO = -0.449540879470118  LUMO = 0.194251586349871
Extra cycle  E= -2.1163747217675  delta_E= -1.26e-12  |g|= 3.65e-07  |ddm|= 1.03e-05
converged SCF energy = -2.1163747217675

******** <class 'pyscf.mcscf.mc1step.CASSCF'> ********
CAS (2e+2e, 4o), ncore = 0, nvir = 16
max_cycle_macro = 50
max_cycle_micro = 4
conv_tol = 1e-07
conv_tol_grad = None
orbital rotation max_stepsize = 0.02
orbital rotation threshold for CI restart = 0.01
augmented hessian ah_max_cycle = 30
augmented hessian ah_conv_tol = 1e-12
augmented hessian ah_linear dependence = 1e-14
augmented hessian ah_level shift = 1e-08
augmented hessian ah_start_tol = 2.5
augmented hessian ah_start_cycle = 3
augmented hessian ah_grad_trust_region = 3
kf_trust_region = 3
kf_interval = 4
ci_response_space = 4
ci_grad_trust_region = 3
with_dep4 0
natorb = False
canonicalization = True
sorting_mo_energy = False
ao2mo_level = 2
chkfile = /var/folders/2g/30fq15_16yvcsfwpd5x9z9p80000gn/T/tmpdh9f0jlu
max_memory 4000 MB (current use 0 MB)
internal_rotation = False
******** <class 'pyscf.fci.direct_spin1.FCISolver'> ********
max. cycles = 50
conv_tol = 1e-08
davidson only = False
linear dependence = 1e-12
level shift = 0.001
max iter space = 12
max_memory 4000 MB
nroots = 1
pspace_size = 400
spin = None
CASCI E = -2.15072005096744  S^2 = 0.0000000
Set conv_tol_grad to 0.000316228
macro iter   1 ( 12 JK    4 micro), CASSCF E = -2.15180422842834  dE = -1.08417746e-03  S^2 = 0.0000000
               |grad[o]|=0.0914  |grad[c]|=0.00142  |ddm|=0.00474  |maxRot[o]|=0.0211
macro iter   2 (  3 JK    1 micro), CASSCF E = -2.15180423794290  dE = -9.51456069e-09  S^2 = 0.0000000
               |grad[o]|=0.000114  |grad[c]|=4.06e-05  |ddm|=3.16e-05  |maxRot[o]|=0.000265
1-step CASSCF converged in   2 macro ( 15 JK   5 micro) steps
CASSCF canonicalization
Density matrix diagonal elements [1.98682123 1.96701954 0.03555276 0.01060646]
CASSCF energy = -2.15180423794290
CASCI E = -2.15180423794290  E(CI) = -5.42766330608837  S^2 = 0.0000000


******** <class 'pyscf.scf.hf.RHF'> ********
method = RHF
initial guess = minao
damping factor = 0
level_shift factor = 0
DIIS = <class 'pyscf.scf.diis.CDIIS'>
diis_start_cycle = 1
diis_space = 8
diis_damp = 0
SCF conv_tol = 1e-09
SCF conv_tol_grad = None
SCF max_cycles = 50
direct_scf = True
direct_scf_tol = 1e-13
chkfile to save SCF result = /var/folders/2g/30fq15_16yvcsfwpd5x9z9p80000gn/T/tmpoi4c9ve_
max_memory 4000 MB (current use 0 MB)
Set gradient conv threshold to 3.16228e-05
Initial guess from minao.
init E= -1.89958618131971
  HOMO = -0.340695149201393  LUMO = 0.143377767169158
cycle= 1 E= -2.10983308863201  delta_E= -0.21  |g|= 0.123  |ddm|= 1.16
  HOMO = -0.461789219270432  LUMO = 0.183992001703583
cycle= 2 E= -2.11615125817697  delta_E= -0.00632  |g|= 0.0222  |ddm|= 0.48
  HOMO = -0.448634221030831  LUMO = 0.193970895812008
cycle= 3 E= -2.11637026240078  delta_E= -0.000219  |g|= 0.00298  |ddm|= 0.139
  HOMO = -0.449459776392485  LUMO = 0.194206294002406
cycle= 4 E= -2.11637466595996  delta_E= -4.4e-06  |g|= 0.000301  |ddm|= 0.0278
  HOMO = -0.449545201691297  LUMO = 0.1942430355644
cycle= 5 E= -2.11637472136483  delta_E= -5.54e-08  |g|= 2.68e-05  |ddm|= 0.00309
  HOMO = -0.449541149811806  LUMO = 0.194251537279416
cycle= 6 E= -2.11637472176624  delta_E= -4.01e-10  |g|= 1.58e-06  |ddm|= 0.000187
  HOMO = -0.449540879470118  LUMO = 0.194251586349882
Extra cycle  E= -2.1163747217675  delta_E= -1.26e-12  |g|= 3.65e-07  |ddm|= 1.03e-05
converged SCF energy = -2.1163747217675

******** <class 'pyscf.mcscf.mc1step.CASSCF'> ********
CAS (2e+2e, 4o), ncore = 0, nvir = 16
max_cycle_macro = 50
max_cycle_micro = 4
conv_tol = 1e-07
conv_tol_grad = None
orbital rotation max_stepsize = 0.02
orbital rotation threshold for CI restart = 0.01
augmented hessian ah_max_cycle = 30
augmented hessian ah_conv_tol = 1e-12
augmented hessian ah_linear dependence = 1e-14
augmented hessian ah_level shift = 1e-08
augmented hessian ah_start_tol = 2.5
augmented hessian ah_start_cycle = 3
augmented hessian ah_grad_trust_region = 3
kf_trust_region = 3
kf_interval = 4
ci_response_space = 4
ci_grad_trust_region = 3
with_dep4 0
natorb = False
canonicalization = True
sorting_mo_energy = False
ao2mo_level = 2
chkfile = /var/folders/2g/30fq15_16yvcsfwpd5x9z9p80000gn/T/tmpoi4c9ve_
max_memory 4000 MB (current use 0 MB)
internal_rotation = False
******** <class 'pyscf.fci.direct_spin1.FCISolver'> ********
max. cycles = 50
conv_tol = 1e-08
davidson only = False
linear dependence = 1e-12
level shift = 0.001
max iter space = 12
max_memory 4000 MB
nroots = 1
pspace_size = 400
spin = None
CASCI E = -2.12357313390495  S^2 = 0.0000000
Set conv_tol_grad to 0.000316228
macro iter   1 ( 21 JK    4 micro), CASSCF E = -2.13559229363695  dE = -1.20191597e-02  S^2 = 0.0000000
               |grad[o]|=0.0139  |grad[c]|=0.0176  |ddm|=0.0249  |maxRot[o]|=0.314
macro iter   2 ( 21 JK    4 micro), CASSCF E = -2.14602540570088  dE = -1.04331121e-02  S^2 = 0.0000000
               |grad[o]|=0.0188  |grad[c]|=0.0131  |ddm|=0.0113  |maxRot[o]|=0.314
macro iter   3 ( 21 JK    4 micro), CASSCF E = -2.15106857479603  dE = -5.04316910e-03  S^2 = 0.0000000
               |grad[o]|=0.0144  |grad[c]|=0.00725  |ddm|=0.00822  |maxRot[o]|=0.314
macro iter   4 ( 13 JK    3 micro), CASSCF E = -2.15179610503283  dE = -7.27530237e-04  S^2 = 0.0000000
               |grad[o]|=0.00816  |grad[c]|=0.00446  |ddm|=0.00856  |maxRot[o]|=0.177
macro iter   5 (  7 JK    3 micro), CASSCF E = -2.15180423299555  dE = -8.12796272e-06  S^2 = 0.0000000
               |grad[o]|=0.00204  |grad[c]|=0.000165  |ddm|=0.00155  |maxRot[o]|=0.0177
macro iter   6 (  3 JK    1 micro), CASSCF E = -2.15180423846559  dE = -5.47004220e-09  S^2 = 0.0000000
               |grad[o]|=4.04e-05  |grad[c]|=6.3e-05  |ddm|=3.08e-05  |maxRot[o]|=0.00029
1-step CASSCF converged in   6 macro ( 86 JK  19 micro) steps
CASSCF canonicalization
Density matrix diagonal elements [1.98744736 1.96873339 0.03492791 0.00889135]
CASSCF energy = -2.15180423846559
CASCI E = -2.15180423846559  E(CI) = -5.42766330661106  S^2 = 0.0000000
