0.json
[['H', (0.0, 0.0, 0.0)], ['H', (0.30000001192092896, 0.0, 0.0)], ['H', (0.6000000238418579, 0.0, 0.0)], ['H', (0.8999999761581421, 0.0, 0.0)]]
overwrite output file: results/fig6/cas_init_result/log_0.txt

Running CASSCF with NN initial guess...
CASSCF (NN guess) took 0.09 seconds

Running CASSCF with HF initial guess...
CASSCF (HF guess) took 0.23 seconds
Date: Mon Aug 25 00:39:48 2025
PySCF version 2.10.0
PySCF path  /opt/anaconda3/envs/vqe_env/lib/python3.11/site-packages/pyscf

[CONFIG] conf_file None
[INPUT] verbose = 4
[INPUT] num. atoms = 4
[INPUT] num. electrons = 4
[INPUT] charge = 0
[INPUT] spin (= nelec alpha-beta = 2S) = 0
[INPUT] symmetry False subgroup None
[INPUT] Mole.unit = angstrom
[INPUT] Symbol           X                Y                Z      unit          X                Y                Z       unit  Magmom
[INPUT]  1 H      0.000000000000   0.000000000000   0.000000000000 AA    0.000000000000   0.000000000000   0.000000000000 Bohr   0.0
[INPUT]  2 H      0.300000011921   0.000000000000   0.000000000000 AA    0.566917859897   0.000000000000   0.000000000000 Bohr   0.0
[INPUT]  3 H      0.600000023842   0.000000000000   0.000000000000 AA    1.133835719794   0.000000000000   0.000000000000 Bohr   0.0
[INPUT]  4 H      0.899999976158   0.000000000000   0.000000000000 AA    1.700753467054   0.000000000000   0.000000000000 Bohr   0.0

nuclear repulsion = 7.64367099768316
number of shells = 12
number of NR pGTOs = 28
number of NR cGTOs = 20
basis = ccpVDZ
ecp = {}
CPU time:        26.01


******** <class 'pyscf.scf.hf.RHF'> ********
method = RHF
initial guess = minao
damping factor = 0
level_shift factor = 0
DIIS = <class 'pyscf.scf.diis.CDIIS'>
diis_start_cycle = 1
diis_space = 8
diis_damp = 0
SCF conv_tol = 1e-09
SCF conv_tol_grad = None
SCF max_cycles = 50
direct_scf = True
direct_scf_tol = 1e-13
chkfile to save SCF result = /var/folders/2g/30fq15_16yvcsfwpd5x9z9p80000gn/T/tmpx0rtkrje
max_memory 4000 MB (current use 0 MB)
Set gradient conv threshold to 3.16228e-05
Initial guess from minao.
init E= -1.00233845214161
  HOMO = -0.176226302850404  LUMO = 0.123867729959903
cycle= 1 E= 0.0875383697422532  delta_E= 1.09  |g|= 0.301  |ddm|=  122
  HOMO = -0.379883004256183  LUMO = 0.184096814716678
cycle= 2 E= 0.0592898599391241  delta_E= -0.0282  |g|= 0.0535  |ddm|= 81.6
  HOMO = -0.350506726448772  LUMO = 0.191892981497188
cycle= 3 E= 0.0582751917847215  delta_E= -0.00101  |g|= 0.00687  |ddm|= 15.4
  HOMO = -0.354255736511582  LUMO = 0.18931344981133
cycle= 4 E= 0.0582561939273845  delta_E= -1.9e-05  |g|= 0.00113  |ddm|= 0.499
  HOMO = -0.354690672405116  LUMO = 0.188916978162123
cycle= 5 E= 0.0582557108426744  delta_E= -4.83e-07  |g|= 5.07e-05  |ddm|= 0.527
  HOMO = -0.354683897382601  LUMO = 0.188915296745395
cycle= 6 E= 0.0582557092578133  delta_E= -1.58e-09  |g|= 6.11e-06  |ddm|=  0.1
  HOMO = -0.354686525867951  LUMO = 0.188912812855375
cycle= 7 E= 0.0582557092308562  delta_E= -2.7e-11  |g|= 2.66e-07  |ddm|= 0.017
  HOMO = -0.354686439638968  LUMO = 0.188912898633578
Extra cycle  E= 0.0582557092307692  delta_E= -8.7e-14  |g|= 4.6e-08  |ddm|= 0.000238
converged SCF energy = 0.0582557092307692


******** <class 'pyscf.scf.hf.RHF'> ********
method = RHF
initial guess = minao
damping factor = 0
level_shift factor = 0
DIIS = <class 'pyscf.scf.diis.CDIIS'>
diis_start_cycle = 1
diis_space = 8
diis_damp = 0
SCF conv_tol = 1e-09
SCF conv_tol_grad = None
SCF max_cycles = 50
direct_scf = True
direct_scf_tol = 1e-13
chkfile to save SCF result = /var/folders/2g/30fq15_16yvcsfwpd5x9z9p80000gn/T/tmps038q6jc
max_memory 4000 MB (current use 0 MB)
Set gradient conv threshold to 3.16228e-05
Initial guess from minao.
init E= -1.00233845214161
  HOMO = -0.176226302850398  LUMO = 0.123867729959907
cycle= 1 E= 0.0875383697415444  delta_E= 1.09  |g|= 0.301  |ddm|=  122
  HOMO = -0.379883004256422  LUMO = 0.184096814716613
cycle= 2 E= 0.0592898599393301  delta_E= -0.0282  |g|= 0.0535  |ddm|= 81.6
  HOMO = -0.350506726449088  LUMO = 0.191892981496291
cycle= 3 E= 0.0582751917846949  delta_E= -0.00101  |g|= 0.00687  |ddm|= 15.4
  HOMO = -0.354255736511318  LUMO = 0.189313449811783
cycle= 4 E= 0.0582561939273587  delta_E= -1.9e-05  |g|= 0.00113  |ddm|= 0.499
  HOMO = -0.354690672405187  LUMO = 0.188916978161976
cycle= 5 E= 0.0582557108426611  delta_E= -4.83e-07  |g|= 5.07e-05  |ddm|= 0.527
  HOMO = -0.354683897382785  LUMO = 0.188915296745111
cycle= 6 E= 0.0582557092577876  delta_E= -1.58e-09  |g|= 6.11e-06  |ddm|=  0.1
  HOMO = -0.354686525868068  LUMO = 0.188912812855158
cycle= 7 E= 0.058255709230826  delta_E= -2.7e-11  |g|= 2.66e-07  |ddm|= 0.017
  HOMO = -0.354686439639028  LUMO = 0.188912898633486
Extra cycle  E= 0.0582557092308083  delta_E= -1.78e-14  |g|= 4.6e-08  |ddm|= 0.000238
converged SCF energy = 0.0582557092308083

******** <class 'pyscf.mcscf.mc1step.CASSCF'> ********
CAS (2e+2e, 4o), ncore = 0, nvir = 16
max_cycle_macro = 50
max_cycle_micro = 4
conv_tol = 1e-07
conv_tol_grad = None
orbital rotation max_stepsize = 0.02
orbital rotation threshold for CI restart = 0.01
augmented hessian ah_max_cycle = 30
augmented hessian ah_conv_tol = 1e-12
augmented hessian ah_linear dependence = 1e-14
augmented hessian ah_level shift = 1e-08
augmented hessian ah_start_tol = 2.5
augmented hessian ah_start_cycle = 3
augmented hessian ah_grad_trust_region = 3
kf_trust_region = 3
kf_interval = 4
ci_response_space = 4
ci_grad_trust_region = 3
with_dep4 0
natorb = False
canonicalization = True
sorting_mo_energy = False
ao2mo_level = 2
chkfile = /var/folders/2g/30fq15_16yvcsfwpd5x9z9p80000gn/T/tmps038q6jc
max_memory 4000 MB (current use 0 MB)
internal_rotation = False
******** <class 'pyscf.fci.direct_spin1.FCISolver'> ********
max. cycles = 50
conv_tol = 1e-08
davidson only = False
linear dependence = 1e-12
level shift = 0.001
max iter space = 12
max_memory 4000 MB
nroots = 1
pspace_size = 400
spin = None
CASCI E = 0.0435754028979591  S^2 = 0.0000000
Set conv_tol_grad to 0.000316228
macro iter   1 ( 21 JK    4 micro), CASSCF E = 0.0316005715900367  dE = -1.19748313e-02  S^2 = 0.0000000
               |grad[o]|=0.355  |grad[c]|=0.0124  |ddm|=0.0237  |maxRot[o]|=0.079
macro iter   2 ( 20 JK    4 micro), CASSCF E = 0.0314258419074918  dE = -1.74729683e-04  S^2 = 0.0000000
               |grad[o]|=0.0409  |grad[c]|=0.000541  |ddm|=0.00171  |maxRot[o]|=0.018
macro iter   3 (  3 JK    1 micro), CASSCF E = 0.0314258306612842  dE = -1.12462075e-08  S^2 = 0.0000000
               |grad[o]|=6.05e-05  |grad[c]|=8.61e-05  |ddm|=1.25e-05  |maxRot[o]|=0.000345
1-step CASSCF converged in   3 macro ( 44 JK   9 micro) steps
CASSCF canonicalization
Density matrix diagonal elements [1.99637272 1.75334143 0.01142597 0.23885988]
CASSCF energy = 0.0314258306612842
CASCI E = 0.0314258306612842  E(CI) = -7.61224516702188  S^2 = 0.0000000


******** <class 'pyscf.scf.hf.RHF'> ********
method = RHF
initial guess = minao
damping factor = 0
level_shift factor = 0
DIIS = <class 'pyscf.scf.diis.CDIIS'>
diis_start_cycle = 1
diis_space = 8
diis_damp = 0
SCF conv_tol = 1e-09
SCF conv_tol_grad = None
SCF max_cycles = 50
direct_scf = True
direct_scf_tol = 1e-13
chkfile to save SCF result = /var/folders/2g/30fq15_16yvcsfwpd5x9z9p80000gn/T/tmpvu1z_nfd
max_memory 4000 MB (current use 0 MB)
Set gradient conv threshold to 3.16228e-05
Initial guess from minao.
init E= -1.00233845214161
  HOMO = -0.176226302850404  LUMO = 0.123867729959907
cycle= 1 E= 0.087538369741778  delta_E= 1.09  |g|= 0.301  |ddm|=  122
  HOMO = -0.379883004256418  LUMO = 0.184096814716109
cycle= 2 E= 0.0592898599392502  delta_E= -0.0282  |g|= 0.0535  |ddm|= 81.6
  HOMO = -0.350506726449104  LUMO = 0.191892981496529
cycle= 3 E= 0.0582751917847233  delta_E= -0.00101  |g|= 0.00687  |ddm|= 15.4
  HOMO = -0.354255736511521  LUMO = 0.189313449811787
cycle= 4 E= 0.0582561939274235  delta_E= -1.9e-05  |g|= 0.00113  |ddm|= 0.499
  HOMO = -0.354690672405191  LUMO = 0.188916978162106
cycle= 5 E= 0.0582557108426798  delta_E= -4.83e-07  |g|= 5.07e-05  |ddm|= 0.527
  HOMO = -0.354683897382605  LUMO = 0.188915296745525
cycle= 6 E= 0.0582557092578071  delta_E= -1.58e-09  |g|= 6.11e-06  |ddm|=  0.1
  HOMO = -0.354686525868136  LUMO = 0.18891281285515
cycle= 7 E= 0.0582557092308225  delta_E= -2.7e-11  |g|= 2.66e-07  |ddm|= 0.017
  HOMO = -0.354686439639059  LUMO = 0.188912898633538
Extra cycle  E= 0.0582557092307283  delta_E= -9.41e-14  |g|= 4.6e-08  |ddm|= 0.000238
converged SCF energy = 0.0582557092307283

******** <class 'pyscf.mcscf.mc1step.CASSCF'> ********
CAS (2e+2e, 4o), ncore = 0, nvir = 16
max_cycle_macro = 50
max_cycle_micro = 4
conv_tol = 1e-07
conv_tol_grad = None
orbital rotation max_stepsize = 0.02
orbital rotation threshold for CI restart = 0.01
augmented hessian ah_max_cycle = 30
augmented hessian ah_conv_tol = 1e-12
augmented hessian ah_linear dependence = 1e-14
augmented hessian ah_level shift = 1e-08
augmented hessian ah_start_tol = 2.5
augmented hessian ah_start_cycle = 3
augmented hessian ah_grad_trust_region = 3
kf_trust_region = 3
kf_interval = 4
ci_response_space = 4
ci_grad_trust_region = 3
with_dep4 0
natorb = False
canonicalization = True
sorting_mo_energy = False
ao2mo_level = 2
chkfile = /var/folders/2g/30fq15_16yvcsfwpd5x9z9p80000gn/T/tmpvu1z_nfd
max_memory 4000 MB (current use 0 MB)
internal_rotation = False
******** <class 'pyscf.fci.direct_spin1.FCISolver'> ********
max. cycles = 50
conv_tol = 1e-08
davidson only = False
linear dependence = 1e-12
level shift = 0.001
max iter space = 12
max_memory 4000 MB
nroots = 1
pspace_size = 400
spin = None
CASCI E = 0.0532040361929189  S^2 = 0.0000000
Set conv_tol_grad to 0.000316228
macro iter   1 ( 21 JK    4 micro), CASSCF E = 0.0507766081002874  dE = -2.42742809e-03  S^2 = 0.0000000
               |grad[o]|=0.0105  |grad[c]|=0.00502  |ddm|=0.00884  |maxRot[o]|=0.0958
macro iter   2 ( 21 JK    4 micro), CASSCF E = 0.0448624068096697  dE = -5.91420129e-03  S^2 = 0.0000000
               |grad[o]|=0.0131  |grad[c]|=0.00956  |ddm|=0.0145  |maxRot[o]|=0.174
macro iter   3 ( 21 JK    4 micro), CASSCF E = 0.0364337253545308  dE = -8.42868146e-03  S^2 = 0.0000000
               |grad[o]|=0.0155  |grad[c]|=0.0115  |ddm|=0.0065  |maxRot[o]|=0.231
macro iter   4 ( 21 JK    4 micro), CASSCF E = 0.0317888887376130  dE = -4.64483662e-03  S^2 = 0.0000000
               |grad[o]|=0.0106  |grad[c]|=0.00929  |ddm|=0.0101  |maxRot[o]|=0.272
macro iter   5 ( 12 JK    4 micro), CASSCF E = 0.0314271184644905  dE = -3.61770273e-04  S^2 = 0.0000000
               |grad[o]|=0.00462  |grad[c]|=0.00333  |ddm|=0.0084  |maxRot[o]|=0.116
macro iter   6 (  3 JK    1 micro), CASSCF E = 0.0314261106970593  dE = -1.00776743e-06  S^2 = 0.0000000
               |grad[o]|=0.000347  |grad[c]|=0.00085  |ddm|=0.000178  |maxRot[o]|=0.00334
macro iter   7 (  3 JK    1 micro), CASSCF E = 0.0314258844069775  dE = -2.26290082e-07  S^2 = 0.0000000
               |grad[o]|=0.000104  |grad[c]|=0.000411  |ddm|=7.88e-05  |maxRot[o]|=0.00158
macro iter   8 (  3 JK    1 micro), CASSCF E = 0.0314258324370922  dE = -5.19698853e-08  S^2 = 0.0000000
               |grad[o]|=4.77e-05  |grad[c]|=0.000217  |ddm|=2.92e-05  |maxRot[o]|=0.000686
1-step CASSCF converged in   8 macro (105 JK  23 micro) steps
CASSCF canonicalization
Density matrix diagonal elements [1.99635437 1.9798982  0.01146922 0.01227821]
CASSCF energy = 0.0314258324370922
CASCI E = 0.0314258324370922  E(CI) = -7.61224516524607  S^2 = 0.0000000
